 Entering Gaussian System, Link 0=g09
 Initial command:
 /public/apps/gaussian//g09/l1.exe "/tmp/836384.pbs/Gau-42863.inp" -scrdir="/tmp/836384.pbs/"
 Entering Link 1 = /public/apps/gaussian//g09/l1.exe PID=     42864.
  
 Copyright (c) 1988,1990,1992,1993,1995,1998,2003,2009,2013,
            Gaussian, Inc.  All Rights Reserved.
  
 This is part of the Gaussian(R) 09 program.  It is based on
 the Gaussian(R) 03 system (copyright 2003, Gaussian, Inc.),
 the Gaussian(R) 98 system (copyright 1998, Gaussian, Inc.),
 the Gaussian(R) 94 system (copyright 1995, Gaussian, Inc.),
 the Gaussian 92(TM) system (copyright 1992, Gaussian, Inc.),
 the Gaussian 90(TM) system (copyright 1990, Gaussian, Inc.),
 the Gaussian 88(TM) system (copyright 1988, Gaussian, Inc.),
 the Gaussian 86(TM) system (copyright 1986, Carnegie Mellon
 University), and the Gaussian 82(TM) system (copyright 1983,
 Carnegie Mellon University). Gaussian is a federally registered
 trademark of Gaussian, Inc.
  
 This software contains proprietary and confidential information,
 including trade secrets, belonging to Gaussian, Inc.
  
 This software is provided under written license and may be
 used, copied, transmitted, or stored only in accord with that
 written license.
  
 The following legend is applicable only to US Government
 contracts under FAR:
  
                    RESTRICTED RIGHTS LEGEND
  
 Use, reproduction and disclosure by the US Government is
 subject to restrictions as set forth in subparagraphs (a)
 and (c) of the Commercial Computer Software - Restricted
 Rights clause in FAR 52.227-19.
  
 Gaussian, Inc.
 340 Quinnipiac St., Bldg. 40, Wallingford CT 06492
  
  
 ---------------------------------------------------------------
 Warning -- This program may not be used in any manner that
 competes with the business of Gaussian, Inc. or will provide
 assistance to any competitor of Gaussian, Inc.  The licensee
 of this program is prohibited from giving any competitor of
 Gaussian, Inc. access to this program.  By using this program,
 the user acknowledges that Gaussian, Inc. is engaged in the
 business of creating and licensing software in the field of
 computational chemistry and represents and warrants to the
 licensee that it is not a competitor of Gaussian, Inc. and that
 it will not use this program in any manner prohibited above.
 ---------------------------------------------------------------
  

 Cite this work as:
 Gaussian 09, Revision D.01,
 M. J. Frisch, G. W. Trucks, H. B. Schlegel, G. E. Scuseria, 
 M. A. Robb, J. R. Cheeseman, G. Scalmani, V. Barone, B. Mennucci, 
 G. A. Petersson, H. Nakatsuji, M. Caricato, X. Li, H. P. Hratchian, 
 A. F. Izmaylov, J. Bloino, G. Zheng, J. L. Sonnenberg, M. Hada, 
 M. Ehara, K. Toyota, R. Fukuda, J. Hasegawa, M. Ishida, T. Nakajima, 
 Y. Honda, O. Kitao, H. Nakai, T. Vreven, J. A. Montgomery, Jr., 
 J. E. Peralta, F. Ogliaro, M. Bearpark, J. J. Heyd, E. Brothers, 
 K. N. Kudin, V. N. Staroverov, T. Keith, R. Kobayashi, J. Normand, 
 K. Raghavachari, A. Rendell, J. C. Burant, S. S. Iyengar, J. Tomasi, 
 M. Cossi, N. Rega, J. M. Millam, M. Klene, J. E. Knox, J. B. Cross, 
 V. Bakken, C. Adamo, J. Jaramillo, R. Gomperts, R. E. Stratmann, 
 O. Yazyev, A. J. Austin, R. Cammi, C. Pomelli, J. W. Ochterski, 
 R. L. Martin, K. Morokuma, V. G. Zakrzewski, G. A. Voth, 
 P. Salvador, J. J. Dannenberg, S. Dapprich, A. D. Daniels, 
 O. Farkas, J. B. Foresman, J. V. Ortiz, J. Cioslowski, 
 and D. J. Fox, Gaussian, Inc., Wallingford CT, 2013.
 
 ******************************************
 Gaussian 09:  ES64L-G09RevD.01 24-Apr-2013
                10-Apr-2017 
 ******************************************
 %chk=1.chk
 %mem=15GB
 %nproc=8
 Will use up to    8 processors via shared memory.
 -------------------------------------------------------------
 #P b3lyp/gen opt freq gfinput scf=(xqc,maxcon=128,maxcyc=128)
 -------------------------------------------------------------
 1/14=-1,18=20,19=15,26=3,38=1/1,3;
 2/9=110,12=2,17=6,18=5,40=1/2;
 3/5=7,11=2,16=1,24=10,25=1,30=1,71=1,74=-5/1,2,3;
 4//1;
 5/5=2,7=128,8=3,13=1,38=5,85=128/2,8;
 6/7=2,8=2,9=2,10=2,28=1/1;
 7//1,2,3,16;
 1/14=-1,18=20,19=15,26=3/3(2);
 2/9=110/2;
 99//99;
 2/9=110/2;
 3/5=7,6=1,11=2,16=1,25=1,30=1,71=1,74=-5,82=7/1,2,3;
 4/5=5,16=3,69=1/1;
 5/5=2,7=128,8=3,13=1,38=5,85=128/2,8;
 7//1,2,3,16;
 1/14=-1,18=20,19=15,26=3/3(-5);
 2/9=110/2;
 6/7=2,8=2,9=2,10=2,19=2,28=1/1;
 99/9=1/99;
 Leave Link    1 at Mon Apr 10 14:26:25 2017, MaxMem=  2013265920 cpu:         0.9
 (Enter /public/apps/gaussian//g09/l101.exe)
 -----------
 methane.car
 -----------
 Symbolic Z-matrix:
 Charge =  0 Multiplicity = 1
 C                     0.16855   0.33655  -0.00045 
 H                     1.11855   0.33655  -0.00045 
 H                    -0.14811   1.23222  -0.00045 
 H                    -0.14811  -0.11128  -0.77612 
 H                    -0.14811  -0.11128   0.77522 
 
 NAtoms=      5 NQM=        5 NQMF=       0 NMMI=      0 NMMIF=      0
                NMic=       0 NMicF=      0.
                    Isotopes and Nuclear Properties:
 (Nuclear quadrupole moments (NQMom) in fm**2, nuclear magnetic moments (NMagM)
  in nuclear magnetons)

  Atom         1           2           3           4           5
 IAtWgt=          12           1           1           1           1
 AtmWgt=  12.0000000   1.0078250   1.0078250   1.0078250   1.0078250
 NucSpn=           0           1           1           1           1
 AtZEff=   0.0000000   0.0000000   0.0000000   0.0000000   0.0000000
 NQMom=    0.0000000   0.0000000   0.0000000   0.0000000   0.0000000
 NMagM=    0.0000000   2.7928460   2.7928460   2.7928460   2.7928460
 AtZNuc=   6.0000000   1.0000000   1.0000000   1.0000000   1.0000000
 Leave Link  101 at Mon Apr 10 14:26:26 2017, MaxMem=  2013265920 cpu:         3.3
 (Enter /public/apps/gaussian//g09/l103.exe)

 GradGradGradGradGradGradGradGradGradGradGradGradGradGradGradGradGradGrad
 Berny optimization.
 Initialization pass.
                           ----------------------------
                           !    Initial Parameters    !
                           ! (Angstroms and Degrees)  !
 --------------------------                            --------------------------
 ! Name  Definition              Value          Derivative Info.                !
 --------------------------------------------------------------------------------
 ! R1    R(1,2)                  0.95           estimate D2E/DX2                !
 ! R2    R(1,3)                  0.95           estimate D2E/DX2                !
 ! R3    R(1,4)                  0.95           estimate D2E/DX2                !
 ! R4    R(1,5)                  0.95           estimate D2E/DX2                !
 ! A1    A(2,1,3)              109.4712         estimate D2E/DX2                !
 ! A2    A(2,1,4)              109.4712         estimate D2E/DX2                !
 ! A3    A(2,1,5)              109.4712         estimate D2E/DX2                !
 ! A4    A(3,1,4)              109.4712         estimate D2E/DX2                !
 ! A5    A(3,1,5)              109.4712         estimate D2E/DX2                !
 ! A6    A(4,1,5)              109.4712         estimate D2E/DX2                !
 ! D1    D(2,1,4,3)           -120.0            estimate D2E/DX2                !
 ! D2    D(2,1,5,3)            120.0            estimate D2E/DX2                !
 ! D3    D(2,1,5,4)           -120.0            estimate D2E/DX2                !
 ! D4    D(3,1,5,4)            120.0            estimate D2E/DX2                !
 --------------------------------------------------------------------------------
 Trust Radius=3.00D-01 FncErr=1.00D-07 GrdErr=1.00D-06
 Number of steps in this run=     24 maximum allowed number of steps=    100.
 GradGradGradGradGradGradGradGradGradGradGradGradGradGradGradGradGradGrad

 Leave Link  103 at Mon Apr 10 14:26:29 2017, MaxMem=  2013265920 cpu:         0.1
 (Enter /public/apps/gaussian//g09/l202.exe)
                          Input orientation:                          
 ---------------------------------------------------------------------
 Center     Atomic      Atomic             Coordinates (Angstroms)
 Number     Number       Type             X           Y           Z
 ---------------------------------------------------------------------
      1          6           0        0.168553    0.336553   -0.000447
      2          1           0        1.118553    0.336553   -0.000447
      3          1           0       -0.148114    1.232221   -0.000447
      4          1           0       -0.148114   -0.111282   -0.776119
      5          1           0       -0.148114   -0.111282    0.775224
 ---------------------------------------------------------------------
                    Distance matrix (angstroms):
                    1          2          3          4          5
     1  C    0.000000
     2  H    0.950000   0.000000
     3  H    0.950000   1.551343   0.000000
     4  H    0.950000   1.551343   1.551344   0.000000
     5  H    0.950000   1.551343   1.551344   1.551344   0.000000
 Stoichiometry    CH4
 Framework group  T[O(C),4C3(H)]
 Deg. of freedom     1
 Full point group                 T       NOp  12
 Largest Abelian subgroup         D2      NOp   4
 Largest concise Abelian subgroup D2      NOp   4
                         Standard orientation:                         
 ---------------------------------------------------------------------
 Center     Atomic      Atomic             Coordinates (Angstroms)
 Number     Number       Type             X           Y           Z
 ---------------------------------------------------------------------
      1          6           0        0.000000    0.000000    0.000000
      2          1           0        0.548483    0.548483    0.548483
      3          1           0       -0.548483   -0.548483    0.548483
      4          1           0       -0.548483    0.548483   -0.548483
      5          1           0        0.548483   -0.548483   -0.548483
 ---------------------------------------------------------------------
 Rotational constants (GHZ):    208.3608614    208.3608614    208.3608614
 Leave Link  202 at Mon Apr 10 14:26:31 2017, MaxMem=  2013265920 cpu:         1.5
 (Enter /public/apps/gaussian//g09/l301.exe)
 General basis read from cards:  (5D, 7F)
 Centers:       1
 6-31G(d')
 ****
 Centers:       2      3      4      5
 6-31G(d')
 ****
 Ernie: Thresh=  0.10000D-02 Tol=  0.10000D-05 Strict=F.
 AO basis set in the form of general basis input (Overlap normalization):
      1 0
 S   6 1.00       0.000000000000
      0.3047524880D+04  0.1834737132D-02
      0.4573695180D+03  0.1403732281D-01
      0.1039486850D+03  0.6884262226D-01
      0.2921015530D+02  0.2321844432D+00
      0.9286662960D+01  0.4679413484D+00
      0.3163926960D+01  0.3623119853D+00
 SP   3 1.00       0.000000000000
      0.7868272350D+01 -0.1193324198D+00  0.6899906659D-01
      0.1881288540D+01 -0.1608541517D+00  0.3164239610D+00
      0.5442492580D+00  0.1143456438D+01  0.7443082909D+00
 SP   1 1.00       0.000000000000
      0.1687144782D+00  0.1000000000D+01  0.1000000000D+01
 D   1 1.00       0.000000000000
      0.6260000000D+00  0.1000000000D+01
 ****
      2 0
 S   3 1.00       0.000000000000
      0.1873113696D+02  0.3349460434D-01
      0.2825394365D+01  0.2347269535D+00
      0.6401216923D+00  0.8137573261D+00
 S   1 1.00       0.000000000000
      0.1612777588D+00  0.1000000000D+01
 ****
      3 0
 S   3 1.00       0.000000000000
      0.1873113696D+02  0.3349460434D-01
      0.2825394365D+01  0.2347269535D+00
      0.6401216923D+00  0.8137573261D+00
 S   1 1.00       0.000000000000
      0.1612777588D+00  0.1000000000D+01
 ****
      4 0
 S   3 1.00       0.000000000000
      0.1873113696D+02  0.3349460434D-01
      0.2825394365D+01  0.2347269535D+00
      0.6401216923D+00  0.8137573261D+00
 S   1 1.00       0.000000000000
      0.1612777588D+00  0.1000000000D+01
 ****
      5 0
 S   3 1.00       0.000000000000
      0.1873113696D+02  0.3349460434D-01
      0.2825394365D+01  0.2347269535D+00
      0.6401216923D+00  0.8137573261D+00
 S   1 1.00       0.000000000000
      0.1612777588D+00  0.1000000000D+01
 ****

 There are     8 symmetry adapted cartesian basis functions of A   symmetry.
 There are     5 symmetry adapted cartesian basis functions of B1  symmetry.
 There are     5 symmetry adapted cartesian basis functions of B2  symmetry.
 There are     5 symmetry adapted cartesian basis functions of B3  symmetry.
 There are     7 symmetry adapted basis functions of A   symmetry.
 There are     5 symmetry adapted basis functions of B1  symmetry.
 There are     5 symmetry adapted basis functions of B2  symmetry.
 There are     5 symmetry adapted basis functions of B3  symmetry.
    22 basis functions,    44 primitive gaussians,    23 cartesian basis functions
     5 alpha electrons        5 beta electrons
       nuclear repulsion energy        15.4153418926 Hartrees.
 IExCor=  402 DFT=T Ex+Corr=B3LYP ExCW=0 ScaHFX=  0.200000
 ScaDFX=  0.800000  0.720000  1.000000  0.810000 ScalE2=  1.000000  1.000000
 IRadAn=      0 IRanWt=     -1 IRanGd=            0 ICorTp=0 IEmpDi=  4
 NAtoms=    5 NActive=    5 NUniq=    2 SFac= 4.00D+00 NAtFMM=   60 NAOKFM=F Big=F
 Integral buffers will be    131072 words long.
 Raffenetti 2 integral format.
 Two-electron integral symmetry is turned on.
 Leave Link  301 at Mon Apr 10 14:26:32 2017, MaxMem=  2013265920 cpu:         1.0
 (Enter /public/apps/gaussian//g09/l302.exe)
 NPDir=0 NMtPBC=     1 NCelOv=     1 NCel=       1 NClECP=     1 NCelD=      1
         NCelK=      1 NCelE2=     1 NClLst=     1 CellRange=     0.0.
 One-electron integrals computed using PRISM.
 One-electron integral symmetry used in STVInt
 NBasis=    22 RedAO= T EigKep=  1.64D-02  NBF=     7     5     5     5
 NBsUse=    22 1.00D-06 EigRej= -1.00D+00 NBFU=     7     5     5     5
 Precomputing XC quadrature grid using
 IXCGrd= 4 IRadAn=           0 IRanWt=          -1 IRanGd=           0 AccXCQ= 0.00D+00.
 Generated NRdTot=       0 NPtTot=           0 NUsed=           0 NTot=          32
 NSgBfM=    23    23    23    23    23 MxSgAt=     5 MxSgA2=     5.
 Leave Link  302 at Mon Apr 10 14:26:34 2017, MaxMem=  2013265920 cpu:         4.9
 (Enter /public/apps/gaussian//g09/l303.exe)
 DipDrv:  MaxL=1.
 Leave Link  303 at Mon Apr 10 14:26:39 2017, MaxMem=  2013265920 cpu:         8.0
 (Enter /public/apps/gaussian//g09/l401.exe)
 ExpMin= 1.61D-01 ExpMax= 3.05D+03 ExpMxC= 4.57D+02 IAcc=1 IRadAn=         1 AccDes= 0.00D+00
 Harris functional with IExCor=  402 and IRadAn=       1 diagonalized for initial guess.
 HarFok:  IExCor=  402 AccDes= 0.00D+00 IRadAn=         1 IDoV= 1 UseB2=F ITyADJ=14
 ICtDFT=  3500011 ScaDFX=  1.000000  1.000000  1.000000  1.000000
 FoFCou: FMM=F IPFlag=           0 FMFlag=      100000 FMFlg1=           0
         NFxFlg=           0 DoJE=T BraDBF=F KetDBF=T FulRan=T
         wScrn=  0.000000 ICntrl=     500 IOpCl=  0 I1Cent=   200000004 NGrid=           0
         NMat0=    1 NMatS0=      1 NMatT0=    0 NMatD0=    1 NMtDS0=    0 NMtDT0=    0
 Petite list used in FoFCou.
 Harris En= -40.5618225435053    
 JPrj=0 DoOrth=F DoCkMO=F.
 Initial guess orbital symmetries:
       Occupied  (A) (A) (T) (T) (T)
       Virtual   (A) (T) (T) (T) (T) (T) (T) (T) (T) (T) (A) (E)
                 (E) (A) (T) (T) (T)
 The electronic state of the initial guess is 1-A.
 Leave Link  401 at Mon Apr 10 14:26:41 2017, MaxMem=  2013265920 cpu:         9.9
 (Enter /public/apps/gaussian//g09/l502.exe)
 Closed shell SCF:
 Using DIIS extrapolation, IDIIS=  1040.
 Integral symmetry usage will be decided dynamically.
 Keep R1 ints in memory in symmetry-blocked form, NReq=913482.
 IVT=       20713 IEndB=       20713 NGot=  2013265920 MDV=  2013235933
 LenX=  2013235933 LenY=  2013234963
 Requested convergence on RMS density matrix=1.00D-08 within 128 cycles.
 Requested convergence on MAX density matrix=1.00D-06.
 Requested convergence on             energy=1.00D-06.
 No special actions if energy rises.
 FoFCou: FMM=F IPFlag=           0 FMFlag=           0 FMFlg1=           0
         NFxFlg=           0 DoJE=F BraDBF=F KetDBF=F FulRan=T
         wScrn=  0.000000 ICntrl=     600 IOpCl=  0 I1Cent=           0 NGrid=           0
         NMat0=    1 NMatS0=    253 NMatT0=    0 NMatD0=    1 NMtDS0=    0 NMtDT0=    0
 Petite list used in FoFCou.
 Integral accuracy reduced to 1.0D-05 until final iterations.

 Cycle   1  Pass 0  IDiag  1:
 E= -40.2983105834383    
 DIIS: error= 9.10D-02 at cycle   1 NSaved=   1.
 NSaved= 1 IEnMin= 1 EnMin= -40.2983105834383     IErMin= 1 ErrMin= 9.10D-02
 ErrMax= 9.10D-02  0.00D+00 EMaxC= 1.00D-01 BMatC= 1.40D-01 BMatP= 1.40D-01
 IDIUse=3 WtCom= 9.04D-02 WtEn= 9.10D-01
 Coeff-Com:  0.100D+01
 Coeff-En:   0.100D+01
 Coeff:      0.100D+01
 Gap=     0.431 Goal=   None    Shift=    0.000
 GapD=    0.431 DampG=2.000 DampE=0.500 DampFc=1.0000 IDamp=-1.
 RMSDP=2.76D-02 MaxDP=2.02D-01              OVMax= 2.23D-01

 Cycle   2  Pass 0  IDiag  1:
 E= -40.3068373231111     Delta-E=       -0.008526739673 Rises=F Damp=F
 DIIS: error= 8.60D-02 at cycle   2 NSaved=   2.
 NSaved= 2 IEnMin= 2 EnMin= -40.3068373231111     IErMin= 2 ErrMin= 8.60D-02
 ErrMax= 8.60D-02  0.00D+00 EMaxC= 1.00D-01 BMatC= 1.34D-01 BMatP= 1.40D-01
 IDIUse=3 WtCom= 1.40D-01 WtEn= 8.60D-01
 Coeff-Com:  0.494D+00 0.506D+00
 Coeff-En:   0.485D+00 0.515D+00
 Coeff:      0.486D+00 0.514D+00
 Gap=     0.552 Goal=   None    Shift=    0.000
 RMSDP=1.45D-02 MaxDP=9.08D-02 DE=-8.53D-03 OVMax= 1.11D-01

 Cycle   3  Pass 0  IDiag  1:
 E= -40.4469661215723     Delta-E=       -0.140128798461 Rises=F Damp=F
 DIIS: error= 1.55D-03 at cycle   3 NSaved=   3.
 NSaved= 3 IEnMin= 3 EnMin= -40.4469661215723     IErMin= 3 ErrMin= 1.55D-03
 ErrMax= 1.55D-03  0.00D+00 EMaxC= 1.00D-01 BMatC= 3.67D-05 BMatP= 1.34D-01
 IDIUse=3 WtCom= 9.84D-01 WtEn= 1.55D-02
 Coeff-Com: -0.590D-02 0.101D-01 0.996D+00
 Coeff-En:   0.000D+00 0.000D+00 0.100D+01
 Coeff:     -0.581D-02 0.995D-02 0.996D+00
 Gap=     0.559 Goal=   None    Shift=    0.000
 RMSDP=3.23D-04 MaxDP=1.69D-03 DE=-1.40D-01 OVMax= 2.25D-03

 Cycle   4  Pass 0  IDiag  1:
 E= -40.4470100372634     Delta-E=       -0.000043915691 Rises=F Damp=F
 DIIS: error= 8.47D-05 at cycle   4 NSaved=   4.
 NSaved= 4 IEnMin= 4 EnMin= -40.4470100372634     IErMin= 4 ErrMin= 8.47D-05
 ErrMax= 8.47D-05  0.00D+00 EMaxC= 1.00D-01 BMatC= 1.27D-07 BMatP= 3.67D-05
 IDIUse=1 WtCom= 1.00D+00 WtEn= 0.00D+00
 Coeff-Com:  0.369D-03-0.537D-04 0.307D-01 0.969D+00
 Coeff:      0.369D-03-0.537D-04 0.307D-01 0.969D+00
 Gap=     0.560 Goal=   None    Shift=    0.000
 RMSDP=1.28D-05 MaxDP=9.52D-05 DE=-4.39D-05 OVMax= 1.03D-04

 Cycle   5  Pass 0  IDiag  1:
 E= -40.4470101749362     Delta-E=       -0.000000137673 Rises=F Damp=F
 DIIS: error= 3.00D-06 at cycle   5 NSaved=   5.
 NSaved= 5 IEnMin= 5 EnMin= -40.4470101749362     IErMin= 5 ErrMin= 3.00D-06
 ErrMax= 3.00D-06  0.00D+00 EMaxC= 1.00D-01 BMatC= 1.27D-10 BMatP= 1.27D-07
 IDIUse=1 WtCom= 1.00D+00 WtEn= 0.00D+00
 Coeff-Com:  0.275D-04-0.291D-04-0.387D-02-0.367D-01 0.104D+01
 Coeff:      0.275D-04-0.291D-04-0.387D-02-0.367D-01 0.104D+01
 Gap=     0.560 Goal=   None    Shift=    0.000
 RMSDP=5.44D-07 MaxDP=5.09D-06 DE=-1.38D-07 OVMax= 3.96D-06

 Initial convergence to 1.0D-05 achieved.  Increase integral accuracy.
 Cycle   6  Pass 1  IDiag  1:
 E= -40.4469644816991     Delta-E=        0.000045693237 Rises=F Damp=F
 DIIS: error= 1.50D-05 at cycle   1 NSaved=   1.
 NSaved= 1 IEnMin= 1 EnMin= -40.4469644816991     IErMin= 1 ErrMin= 1.50D-05
 ErrMax= 1.50D-05  0.00D+00 EMaxC= 1.00D-01 BMatC= 4.13D-09 BMatP= 4.13D-09
 IDIUse=1 WtCom= 1.00D+00 WtEn= 0.00D+00
 Coeff-Com:  0.100D+01
 Coeff:      0.100D+01
 Gap=     0.560 Goal=   None    Shift=    0.000
 RMSDP=5.44D-07 MaxDP=5.09D-06 DE= 4.57D-05 OVMax= 3.52D-05

 Cycle   7  Pass 1  IDiag  1:
 E= -40.4469644893554     Delta-E=       -0.000000007656 Rises=F Damp=F
 DIIS: error= 1.14D-06 at cycle   2 NSaved=   2.
 NSaved= 2 IEnMin= 2 EnMin= -40.4469644893554     IErMin= 2 ErrMin= 1.14D-06
 ErrMax= 1.14D-06  0.00D+00 EMaxC= 1.00D-01 BMatC= 4.31D-11 BMatP= 4.13D-09
 IDIUse=1 WtCom= 1.00D+00 WtEn= 0.00D+00
 Coeff-Com: -0.475D-01 0.105D+01
 Coeff:     -0.475D-01 0.105D+01
 Gap=     0.560 Goal=   None    Shift=    0.000
 RMSDP=7.59D-07 MaxDP=2.80D-06 DE=-7.66D-09 OVMax= 2.32D-06

 Cycle   8  Pass 1  IDiag  1:
 E= -40.4469644894003     Delta-E=       -0.000000000045 Rises=F Damp=F
 DIIS: error= 5.15D-07 at cycle   3 NSaved=   3.
 NSaved= 3 IEnMin= 3 EnMin= -40.4469644894003     IErMin= 3 ErrMin= 5.15D-07
 ErrMax= 5.15D-07  0.00D+00 EMaxC= 1.00D-01 BMatC= 5.26D-12 BMatP= 4.31D-11
 IDIUse=1 WtCom= 1.00D+00 WtEn= 0.00D+00
 Coeff-Com: -0.119D-01 0.259D+00 0.753D+00
 Coeff:     -0.119D-01 0.259D+00 0.753D+00
 Gap=     0.560 Goal=   None    Shift=    0.000
 RMSDP=1.22D-07 MaxDP=9.25D-07 DE=-4.50D-11 OVMax= 9.69D-07

 Cycle   9  Pass 1  IDiag  1:
 E= -40.4469644894042     Delta-E=       -0.000000000004 Rises=F Damp=F
 DIIS: error= 2.61D-07 at cycle   4 NSaved=   4.
 NSaved= 4 IEnMin= 4 EnMin= -40.4469644894042     IErMin= 4 ErrMin= 2.61D-07
 ErrMax= 2.61D-07  0.00D+00 EMaxC= 1.00D-01 BMatC= 1.23D-12 BMatP= 5.26D-12
 IDIUse=1 WtCom= 1.00D+00 WtEn= 0.00D+00
 Coeff-Com: -0.207D-02 0.115D-01 0.331D+00 0.660D+00
 Coeff:     -0.207D-02 0.115D-01 0.331D+00 0.660D+00
 Gap=     0.560 Goal=   None    Shift=    0.000
 RMSDP=3.66D-08 MaxDP=3.00D-07 DE=-3.85D-12 OVMax= 3.10D-07

 Cycle  10  Pass 1  IDiag  1:
 E= -40.4469644894054     Delta-E=       -0.000000000001 Rises=F Damp=F
 DIIS: error= 3.20D-09 at cycle   5 NSaved=   5.
 NSaved= 5 IEnMin= 5 EnMin= -40.4469644894054     IErMin= 5 ErrMin= 3.20D-09
 ErrMax= 3.20D-09  0.00D+00 EMaxC= 1.00D-01 BMatC= 1.61D-16 BMatP= 1.23D-12
 IDIUse=1 WtCom= 1.00D+00 WtEn= 0.00D+00
 Coeff-Com:  0.666D-04-0.104D-02-0.659D-02 0.343D-03 0.101D+01
 Coeff:      0.666D-04-0.104D-02-0.659D-02 0.343D-03 0.101D+01
 Gap=     0.560 Goal=   None    Shift=    0.000
 RMSDP=1.00D-09 MaxDP=4.27D-09 DE=-1.21D-12 OVMax= 5.46D-09

 SCF Done:  E(RB3LYP) =  -40.4469644894     A.U. after   10 cycles
            NFock= 10  Conv=0.10D-08     -V/T= 1.9832
 KE= 4.113969094914D+01 PE=-1.245540737552D+02 EE= 2.755207642408D+01
 Leave Link  502 at Mon Apr 10 14:26:45 2017, MaxMem=  2013265920 cpu:        20.9
 (Enter /public/apps/gaussian//g09/l508.exe)
 QCSCF skips out because SCF is already converged.
 Leave Link  508 at Mon Apr 10 14:26:46 2017, MaxMem=  2013265920 cpu:         0.0
 (Enter /public/apps/gaussian//g09/l601.exe)
 Copying SCF densities to generalized density rwf, IOpCl= 0 IROHF=0.

 **********************************************************************

            Population analysis using the SCF density.

 **********************************************************************

 Orbital symmetries:
       Occupied  (A) (A) (T) (T) (T)
       Virtual   (A) (T) (T) (T) (T) (T) (T) (T) (T) (T) (A) (A)
                 (E) (E) (T) (T) (T)
 The electronic state is 1-A.
 Alpha  occ. eigenvalues --  -10.09692  -0.73821  -0.41475  -0.41475  -0.41475
 Alpha virt. eigenvalues --    0.14487   0.22024   0.22024   0.22024   0.49253
 Alpha virt. eigenvalues --    0.49253   0.49253   0.99014   0.99014   0.99014
 Alpha virt. eigenvalues --    1.14140   1.22979   1.23348   1.23348   2.20559
 Alpha virt. eigenvalues --    2.20559   2.20559
          Condensed to atoms (all electrons):
               1          2          3          4          5
     1  C    5.058973   0.410062   0.410062   0.410062   0.410062
     2  H    0.410062   0.497435  -0.027434  -0.027434  -0.027434
     3  H    0.410062  -0.027434   0.497435  -0.027434  -0.027434
     4  H    0.410062  -0.027434  -0.027434   0.497435  -0.027434
     5  H    0.410062  -0.027434  -0.027434  -0.027434   0.497435
 Mulliken charges:
               1
     1  C   -0.699220
     2  H    0.174805
     3  H    0.174805
     4  H    0.174805
     5  H    0.174805
 Sum of Mulliken charges =   0.00000
 Mulliken charges with hydrogens summed into heavy atoms:
               1
     1  C    0.000000
 Electronic spatial extent (au):  <R**2>=             30.3180
 Charge=              0.0000 electrons
 Dipole moment (field-independent basis, Debye):
    X=              0.0000    Y=              0.0000    Z=              0.0000  Tot=              0.0000
 Quadrupole moment (field-independent basis, Debye-Ang):
   XX=             -7.8130   YY=             -7.8130   ZZ=             -7.8130
   XY=              0.0000   XZ=              0.0000   YZ=              0.0000
 Traceless Quadrupole moment (field-independent basis, Debye-Ang):
   XX=              0.0000   YY=              0.0000   ZZ=              0.0000
   XY=              0.0000   XZ=              0.0000   YZ=              0.0000
 Octapole moment (field-independent basis, Debye-Ang**2):
  XXX=              0.0000  YYY=              0.0000  ZZZ=              0.0000  XYY=              0.0000
  XXY=              0.0000  XXZ=              0.0000  XZZ=              0.0000  YZZ=              0.0000
  YYZ=              0.0000  XYZ=              0.3753
 Hexadecapole moment (field-independent basis, Debye-Ang**3):
 XXXX=            -12.4841 YYYY=            -12.4841 ZZZZ=            -12.4841 XXXY=              0.0000
 XXXZ=              0.0000 YYYX=              0.0000 YYYZ=              0.0000 ZZZX=              0.0000
 ZZZY=              0.0000 XXYY=             -3.9094 XXZZ=             -3.9094 YYZZ=             -3.9094
 XXYZ=              0.0000 YYXZ=              0.0000 ZZXY=              0.0000
 N-N= 1.541534189262D+01 E-N=-1.245540736784D+02  KE= 4.113969094914D+01
 Symmetry A    KE= 3.465751503678D+01
 Symmetry B1   KE= 2.160725304118D+00
 Symmetry B2   KE= 2.160725304118D+00
 Symmetry B3   KE= 2.160725304118D+00
 No NMR shielding tensors so no spin-rotation constants.
 Leave Link  601 at Mon Apr 10 14:26:48 2017, MaxMem=  2013265920 cpu:         4.7
 (Enter /public/apps/gaussian//g09/l701.exe)
 Compute integral first derivatives.
 ... and contract with generalized density number  0.
 Leave Link  701 at Mon Apr 10 14:26:50 2017, MaxMem=  2013265920 cpu:         4.0
 (Enter /public/apps/gaussian//g09/l702.exe)
 L702 exits ... SP integral derivatives will be done elsewhere.
 Leave Link  702 at Mon Apr 10 14:26:51 2017, MaxMem=  2013265920 cpu:         0.2
 (Enter /public/apps/gaussian//g09/l703.exe)
 Compute integral first derivatives, UseDBF=F ICtDFT=           0.
 Integral derivatives from FoFJK, PRISM(SPDF).
 Calling FoFJK, ICntrl=      2127 FMM=F ISym2X=1 I1Cent= 0 IOpClX= 0 NMat=1 NMatS=1 NMatT=0.
 FoFJK:  IHMeth= 1 ICntrl=    2127 DoSepK=F KAlg= 0 I1Cent=   0 FoldK=F
 IRaf=         0 NMat=   1 IRICut=       1 DoRegI=T DoRafI=F ISym2E= 1.
 FoFCou: FMM=F IPFlag=           0 FMFlag=      100000 FMFlg1=         800
         NFxFlg=           0 DoJE=F BraDBF=F KetDBF=F FulRan=T
         wScrn=  0.000000 ICntrl=    2127 IOpCl=  0 I1Cent=           0 NGrid=           0
         NMat0=    1 NMatS0=      1 NMatT0=    0 NMatD0=    1 NMtDS0=    0 NMtDT0=    0
 Petite list used in FoFCou.
 Leave Link  703 at Mon Apr 10 14:26:53 2017, MaxMem=  2013265920 cpu:         4.3
 (Enter /public/apps/gaussian//g09/l716.exe)
 Dipole        = 4.44089210D-16 2.22044605D-16 2.22044605D-16
 ***** Axes restored to original set *****
 -------------------------------------------------------------------
 Center     Atomic                   Forces (Hartrees/Bohr)
 Number     Number              X              Y              Z
 -------------------------------------------------------------------
      1        6           0.000000000    0.000000000    0.000000000
      2        1           0.146339776   -0.000000104   -0.000000022
      3        1          -0.048779827    0.137970499   -0.000000061
      4        1          -0.048779993   -0.068985257   -0.119485885
      5        1          -0.048779956   -0.068985138    0.119485969
 -------------------------------------------------------------------
 Cartesian Forces:  Max     0.146339776 RMS     0.075569535
 Leave Link  716 at Mon Apr 10 14:26:56 2017, MaxMem=  2013265920 cpu:         0.3
 (Enter /public/apps/gaussian//g09/l103.exe)

 GradGradGradGradGradGradGradGradGradGradGradGradGradGradGradGradGradGrad
 Berny optimization.
 FormGI is forming the generalized inverse of G from B-inverse, IUseBI=4.
 Internal  Forces:  Max     0.146339776 RMS     0.078221901
 Search for a local minimum.
 Step number   1 out of a maximum of   24
 All quantities printed in internal units (Hartrees-Bohrs-Radians)
 RMS Force = .78222D-01 SwitMx=.10000D-02 MixMth= 1
 Mixed Optimization -- RFO/linear search
 Second derivative matrix not updated -- first step.
 The second derivative matrix:
                          R1        R2        R3        R4        A1
           R1           0.57681
           R2           0.00000   0.57681
           R3           0.00000   0.00000   0.57681
           R4           0.00000   0.00000   0.00000   0.57681
           A1           0.00000   0.00000   0.00000   0.00000   0.16000
           A2           0.00000   0.00000   0.00000   0.00000   0.00000
           A3           0.00000   0.00000   0.00000   0.00000   0.00000
           A4           0.00000   0.00000   0.00000   0.00000   0.00000
           A5           0.00000   0.00000   0.00000   0.00000   0.00000
           A6           0.00000   0.00000   0.00000   0.00000   0.00000
           D1           0.00000   0.00000   0.00000   0.00000   0.00000
           D2           0.00000   0.00000   0.00000   0.00000   0.00000
           D3           0.00000   0.00000   0.00000   0.00000   0.00000
           D4           0.00000   0.00000   0.00000   0.00000   0.00000
                          A2        A3        A4        A5        A6
           A2           0.16000
           A3           0.00000   0.16000
           A4           0.00000   0.00000   0.16000
           A5           0.00000   0.00000   0.00000   0.16000
           A6           0.00000   0.00000   0.00000   0.00000   0.16000
           D1           0.00000   0.00000   0.00000   0.00000   0.00000
           D2           0.00000   0.00000   0.00000   0.00000   0.00000
           D3           0.00000   0.00000   0.00000   0.00000   0.00000
           D4           0.00000   0.00000   0.00000   0.00000   0.00000
                          D1        D2        D3        D4
           D1           0.02087
           D2           0.00000   0.02087
           D3           0.00000   0.00000   0.02087
           D4           0.00000   0.00000   0.00000   0.02087
 ITU=  0
     Eigenvalues ---    0.06368   0.06926   0.09507   0.16000   0.16000
     Eigenvalues ---    0.57681   0.57681   0.57681   0.57681
 RFO step:  Lambda=-1.22494770D-01 EMin= 6.36775842D-02
 Linear search not attempted -- first point.
 Maximum step size (   0.300) exceeded in Quadratic search.
    -- Step size scaled by   0.717
 Iteration  1 RMS(Cart)=  0.08017837 RMS(Int)=  0.00000000
 Iteration  2 RMS(Cart)=  0.00000000 RMS(Int)=  0.00000000
 ITry= 1 IFail=0 DXMaxC= 1.50D-01 DCOld= 1.00D+10 DXMaxT= 3.00D-01 DXLimC= 3.00D+00 Rises=F
 ClnCor:  largest displacement from symmetrization is 8.81D-15 for atom     4.
 Variable       Old X    -DE/DX   Delta X   Delta X   Delta X     New X
                                 (Linear)    (Quad)   (Total)
    R1        1.79524   0.14634   0.00000   0.15000   0.15000   1.94524
    R2        1.79524   0.14634   0.00000   0.15000   0.15000   1.94524
    R3        1.79524   0.14634   0.00000   0.15000   0.15000   1.94524
    R4        1.79524   0.14634   0.00000   0.15000   0.15000   1.94524
    A1        1.91063   0.00000   0.00000   0.00000   0.00000   1.91063
    A2        1.91063   0.00000   0.00000   0.00000   0.00000   1.91063
    A3        1.91063   0.00000   0.00000   0.00000   0.00000   1.91063
    A4        1.91063   0.00000   0.00000   0.00000   0.00000   1.91063
    A5        1.91063   0.00000   0.00000   0.00000   0.00000   1.91063
    A6        1.91063   0.00000   0.00000   0.00000   0.00000   1.91063
    D1       -2.09440   0.00000   0.00000   0.00000   0.00000  -2.09440
    D2        2.09440   0.00000   0.00000   0.00000   0.00000   2.09440
    D3       -2.09440   0.00000   0.00000   0.00000   0.00000  -2.09440
    D4        2.09440   0.00000   0.00000   0.00000   0.00000   2.09440
         Item               Value     Threshold  Converged?
 Maximum Force            0.146340     0.000450     NO 
 RMS     Force            0.078222     0.000300     NO 
 Maximum Displacement     0.150000     0.001800     NO 
 RMS     Displacement     0.080178     0.001200     NO 
 Predicted change in Energy=-6.184736D-02
 Lowest energy point so far.  Saving SCF results.
 GradGradGradGradGradGradGradGradGradGradGradGradGradGradGradGradGradGrad

 Leave Link  103 at Mon Apr 10 14:26:59 2017, MaxMem=  2013265920 cpu:        17.9
 (Enter /public/apps/gaussian//g09/l202.exe)
                          Input orientation:                          
 ---------------------------------------------------------------------
 Center     Atomic      Atomic             Coordinates (Angstroms)
 Number     Number       Type             X           Y           Z
 ---------------------------------------------------------------------
      1          6           0        0.168553    0.336553   -0.000447
      2          1           0        1.197929    0.336552   -0.000447
      3          1           0       -0.174572    1.307058   -0.000448
      4          1           0       -0.174573   -0.148700   -0.840929
      5          1           0       -0.174573   -0.148699    0.840035
 ---------------------------------------------------------------------
                    Distance matrix (angstroms):
                    1          2          3          4          5
     1  C    0.000000
     2  H    1.029377   0.000000
     3  H    1.029377   1.680965   0.000000
     4  H    1.029377   1.680965   1.680965   0.000000
     5  H    1.029377   1.680965   1.680965   1.680965   0.000000
 Stoichiometry    CH4
 Framework group  TD[O(C),4C3(H)]
 Deg. of freedom     1
 Full point group                 TD      NOp  24
 Omega: Change in point group or standard orientation.

 Old FWG=T    [O(C1),4C3(H1)]
 New FWG=TD   [O(C1),4C3(H1)]
 RotChk:  IX=0 Diff= 9.97D-15
 Largest Abelian subgroup         D2      NOp   4
 Largest concise Abelian subgroup D2      NOp   4
                         Standard orientation:                         
 ---------------------------------------------------------------------
 Center     Atomic      Atomic             Coordinates (Angstroms)
 Number     Number       Type             X           Y           Z
 ---------------------------------------------------------------------
      1          6           0        0.000000    0.000000    0.000000
      2          1           0        0.594311    0.594311    0.594311
      3          1           0       -0.594311   -0.594311    0.594311
      4          1           0       -0.594311    0.594311   -0.594311
      5          1           0        0.594311   -0.594311   -0.594311
 ---------------------------------------------------------------------
 Rotational constants (GHZ):    177.4658464    177.4658464    177.4658464
 Leave Link  202 at Mon Apr 10 14:26:59 2017, MaxMem=  2013265920 cpu:         0.8
 (Enter /public/apps/gaussian//g09/l301.exe)
 Basis read from rwf:  (5D, 7F)
 No pseudopotential information found on rwf file.
 There are     8 symmetry adapted cartesian basis functions of A   symmetry.
 There are     5 symmetry adapted cartesian basis functions of B1  symmetry.
 There are     5 symmetry adapted cartesian basis functions of B2  symmetry.
 There are     5 symmetry adapted cartesian basis functions of B3  symmetry.
 There are     7 symmetry adapted basis functions of A   symmetry.
 There are     5 symmetry adapted basis functions of B1  symmetry.
 There are     5 symmetry adapted basis functions of B2  symmetry.
 There are     5 symmetry adapted basis functions of B3  symmetry.
    22 basis functions,    44 primitive gaussians,    23 cartesian basis functions
     5 alpha electrons        5 beta electrons
       nuclear repulsion energy        14.2266445729 Hartrees.
 IExCor=  402 DFT=T Ex+Corr=B3LYP ExCW=0 ScaHFX=  0.200000
 ScaDFX=  0.800000  0.720000  1.000000  0.810000 ScalE2=  1.000000  1.000000
 IRadAn=      0 IRanWt=     -1 IRanGd=            0 ICorTp=0 IEmpDi=  4
 NAtoms=    5 NActive=    5 NUniq=    2 SFac= 4.00D+00 NAtFMM=   60 NAOKFM=F Big=F
 Integral buffers will be    131072 words long.
 Raffenetti 2 integral format.
 Two-electron integral symmetry is turned on.
 No density basis found on file   724.
 Leave Link  301 at Mon Apr 10 14:27:00 2017, MaxMem=  2013265920 cpu:         0.7
 (Enter /public/apps/gaussian//g09/l302.exe)
 NPDir=0 NMtPBC=     1 NCelOv=     1 NCel=       1 NClECP=     1 NCelD=      1
         NCelK=      1 NCelE2=     1 NClLst=     1 CellRange=     0.0.
 One-electron integrals computed using PRISM.
 One-electron integral symmetry used in STVInt
 NBasis=    22 RedAO= T EigKep=  2.19D-02  NBF=     7     5     5     5
 NBsUse=    22 1.00D-06 EigRej= -1.00D+00 NBFU=     7     5     5     5
 Precomputing XC quadrature grid using
 IXCGrd= 4 IRadAn=           0 IRanWt=          -1 IRanGd=           0 AccXCQ= 0.00D+00.
 Generated NRdTot=       0 NPtTot=           0 NUsed=           0 NTot=          32
 NSgBfM=    23    23    23    23    23 MxSgAt=     5 MxSgA2=     5.
 Leave Link  302 at Mon Apr 10 14:27:01 2017, MaxMem=  2013265920 cpu:         6.4
 (Enter /public/apps/gaussian//g09/l303.exe)
 DipDrv:  MaxL=1.
 Leave Link  303 at Mon Apr 10 14:27:03 2017, MaxMem=  2013265920 cpu:         3.0
 (Enter /public/apps/gaussian//g09/l401.exe)
 Initial guess from the checkpoint file:  "1.chk"
 B after Tr=     0.000000    0.000000    0.000000
         Rot=    1.000000    0.000000    0.000000    0.000000 Ang=   0.00 deg.
 Guess basis will be translated and rotated to current coordinates.
 JPrj=2 DoOrth=T DoCkMO=T.
 Initial guess orbital symmetries:
       Occupied  (A1) (A1) (T2) (T2) (T2)
       Virtual   (A1) (E) (E) (A1) (A1) (T2) (T2) (T2) (T2) (T2)
                 (T2) (T2) (T2) (T2) (T2) (T2) (T2)
 The electronic state of the initial guess is 1-A1.
 Generating alternative initial guess.
 ExpMin= 1.61D-01 ExpMax= 3.05D+03 ExpMxC= 4.57D+02 IAcc=1 IRadAn=         1 AccDes= 0.00D+00
 Harris functional with IExCor=  402 and IRadAn=       1 diagonalized for initial guess.
 HarFok:  IExCor=  402 AccDes= 0.00D+00 IRadAn=         1 IDoV= 1 UseB2=F ITyADJ=14
 ICtDFT=  3500011 ScaDFX=  1.000000  1.000000  1.000000  1.000000
 FoFCou: FMM=F IPFlag=           0 FMFlag=      100000 FMFlg1=           0
         NFxFlg=           0 DoJE=T BraDBF=F KetDBF=T FulRan=T
         wScrn=  0.000000 ICntrl=     500 IOpCl=  0 I1Cent=   200000004 NGrid=           0
         NMat0=    1 NMatS0=      1 NMatT0=    0 NMatD0=    1 NMtDS0=    0 NMtDT0=    0
 Petite list used in FoFCou.
 Harris En= -40.5734769014323    
 Leave Link  401 at Mon Apr 10 14:27:05 2017, MaxMem=  2013265920 cpu:         9.3
 (Enter /public/apps/gaussian//g09/l502.exe)
 Closed shell SCF:
 Using DIIS extrapolation, IDIIS=  1040.
 Integral symmetry usage will be decided dynamically.
 Keep R1 ints in memory in symmetry-blocked form, NReq=913626.
 IVT=       20857 IEndB=       20857 NGot=  2013265920 MDV=  2013235789
 LenX=  2013235789 LenY=  2013234819
 Requested convergence on RMS density matrix=1.00D-08 within 128 cycles.
 Requested convergence on MAX density matrix=1.00D-06.
 Requested convergence on             energy=1.00D-06.
 No special actions if energy rises.
 FoFCou: FMM=F IPFlag=           0 FMFlag=           0 FMFlg1=           0
         NFxFlg=           0 DoJE=F BraDBF=F KetDBF=F FulRan=T
         wScrn=  0.000000 ICntrl=     600 IOpCl=  0 I1Cent=           0 NGrid=           0
         NMat0=    1 NMatS0=    253 NMatT0=    0 NMatD0=    1 NMtDS0=    0 NMtDT0=    0
 Petite list used in FoFCou.
 Integral accuracy reduced to 1.0D-05 until final iterations.

 Cycle   1  Pass 0  IDiag  1:
 E= -40.4999291360653    
 DIIS: error= 1.46D-02 at cycle   1 NSaved=   1.
 NSaved= 1 IEnMin= 1 EnMin= -40.4999291360653     IErMin= 1 ErrMin= 1.46D-02
 ErrMax= 1.46D-02  0.00D+00 EMaxC= 1.00D-01 BMatC= 4.00D-03 BMatP= 4.00D-03
 IDIUse=3 WtCom= 8.54D-01 WtEn= 1.46D-01
 Coeff-Com:  0.100D+01
 Coeff-En:   0.100D+01
 Coeff:      0.100D+01
 Recover alternate guess density for next cycle.
 RMSDP=1.07D-02 MaxDP=7.63D-02              OVMax= 0.00D+00

 Cycle   2  Pass 0  IDiag  1:
 E= -40.3920510995385     Delta-E=        0.107878036527 Rises=F Damp=F
 Switch densities from cycles 1 and 2 for lowest energy.
 DIIS: error= 7.95D-02 at cycle   2 NSaved=   2.
 NSaved= 2 IEnMin= 1 EnMin= -40.4999291360653     IErMin= 1 ErrMin= 1.46D-02
 ErrMax= 7.95D-02  0.00D+00 EMaxC= 1.00D+00 BMatC= 1.03D-01 BMatP= 4.00D-03
 IDIUse=1 WtCom= 1.00D+00 WtEn= 0.00D+00
 Coeff-Com:  0.118D+01-0.183D+00
 Coeff:      0.118D+01-0.183D+00
 Gap=     1.077 Goal=   None    Shift=    0.000
 RMSDP=3.04D-03 MaxDP=2.52D-02 DE= 1.08D-01 OVMax= 2.09D-02

 Cycle   3  Pass 0  IDiag  1:
 E= -40.5046643057654     Delta-E=       -0.112613206227 Rises=F Damp=F
 DIIS: error= 1.22D-03 at cycle   3 NSaved=   3.
 NSaved= 3 IEnMin= 3 EnMin= -40.5046643057654     IErMin= 3 ErrMin= 1.22D-03
 ErrMax= 1.22D-03  0.00D+00 EMaxC= 1.00D+00 BMatC= 2.54D-05 BMatP= 4.00D-03
 IDIUse=1 WtCom= 1.00D+00 WtEn= 0.00D+00
 Coeff-Com: -0.741D-02 0.156D-01 0.992D+00
 Coeff:     -0.741D-02 0.156D-01 0.992D+00
 Gap=     0.532 Goal=   None    Shift=    0.000
 RMSDP=3.14D-04 MaxDP=2.00D-03 DE=-1.13D-01 OVMax= 1.77D-03

 Cycle   4  Pass 0  IDiag  1:
 E= -40.5046961458878     Delta-E=       -0.000031840122 Rises=F Damp=F
 DIIS: error= 5.41D-05 at cycle   4 NSaved=   4.
 NSaved= 4 IEnMin= 4 EnMin= -40.5046961458878     IErMin= 4 ErrMin= 5.41D-05
 ErrMax= 5.41D-05  0.00D+00 EMaxC= 1.00D+00 BMatC= 4.94D-08 BMatP= 2.54D-05
 IDIUse=1 WtCom= 1.00D+00 WtEn= 0.00D+00
 Coeff-Com: -0.355D-02 0.401D-03 0.240D-01 0.979D+00
 Coeff:     -0.355D-02 0.401D-03 0.240D-01 0.979D+00
 Gap=     0.532 Goal=   None    Shift=    0.000
 RMSDP=1.25D-05 MaxDP=5.96D-05 DE=-3.18D-05 OVMax= 9.32D-05

 Cycle   5  Pass 0  IDiag  1:
 E= -40.5046962154549     Delta-E=       -0.000000069567 Rises=F Damp=F
 DIIS: error= 3.83D-06 at cycle   5 NSaved=   5.
 NSaved= 5 IEnMin= 5 EnMin= -40.5046962154549     IErMin= 5 ErrMin= 3.83D-06
 ErrMax= 3.83D-06  0.00D+00 EMaxC= 1.00D+00 BMatC= 1.93D-10 BMatP= 4.94D-08
 IDIUse=1 WtCom= 1.00D+00 WtEn= 0.00D+00
 Coeff-Com:  0.210D-03 0.181D-04-0.200D-02-0.689D-01 0.107D+01
 Coeff:      0.210D-03 0.181D-04-0.200D-02-0.689D-01 0.107D+01
 Gap=     0.532 Goal=   None    Shift=    0.000
 RMSDP=4.57D-07 MaxDP=5.04D-06 DE=-6.96D-08 OVMax= 5.32D-06

 Initial convergence to 1.0D-05 achieved.  Increase integral accuracy.
 Cycle   6  Pass 1  IDiag  1:
 E= -40.5046492564018     Delta-E=        0.000046959053 Rises=F Damp=F
 DIIS: error= 1.17D-05 at cycle   1 NSaved=   1.
 NSaved= 1 IEnMin= 1 EnMin= -40.5046492564018     IErMin= 1 ErrMin= 1.17D-05
 ErrMax= 1.17D-05  0.00D+00 EMaxC= 1.00D+00 BMatC= 2.85D-09 BMatP= 2.85D-09
 IDIUse=1 WtCom= 1.00D+00 WtEn= 0.00D+00
 Coeff-Com:  0.100D+01
 Coeff:      0.100D+01
 Gap=     0.532 Goal=   None    Shift=    0.000
 RMSDP=4.57D-07 MaxDP=5.04D-06 DE= 4.70D-05 OVMax= 3.22D-05

 Cycle   7  Pass 1  IDiag  1:
 E= -40.5046492622460     Delta-E=       -0.000000005844 Rises=F Damp=F
 DIIS: error= 1.19D-06 at cycle   2 NSaved=   2.
 NSaved= 2 IEnMin= 2 EnMin= -40.5046492622460     IErMin= 2 ErrMin= 1.19D-06
 ErrMax= 1.19D-06  0.00D+00 EMaxC= 1.00D+00 BMatC= 4.58D-11 BMatP= 2.85D-09
 IDIUse=1 WtCom= 1.00D+00 WtEn= 0.00D+00
 Coeff-Com: -0.448D-01 0.104D+01
 Coeff:     -0.448D-01 0.104D+01
 Gap=     0.532 Goal=   None    Shift=    0.000
 RMSDP=5.90D-07 MaxDP=2.80D-06 DE=-5.84D-09 OVMax= 2.35D-06

 Cycle   8  Pass 1  IDiag  1:
 E= -40.5046492622760     Delta-E=       -0.000000000030 Rises=F Damp=F
 DIIS: error= 9.80D-07 at cycle   3 NSaved=   3.
 NSaved= 3 IEnMin= 3 EnMin= -40.5046492622760     IErMin= 3 ErrMin= 9.80D-07
 ErrMax= 9.80D-07  0.00D+00 EMaxC= 1.00D+00 BMatC= 1.78D-11 BMatP= 4.58D-11
 IDIUse=1 WtCom= 1.00D+00 WtEn= 0.00D+00
 Coeff-Com: -0.172D-01 0.405D+00 0.613D+00
 Coeff:     -0.172D-01 0.405D+00 0.613D+00
 Gap=     0.532 Goal=   None    Shift=    0.000
 RMSDP=1.87D-07 MaxDP=1.41D-06 DE=-3.00D-11 OVMax= 1.57D-06

 Cycle   9  Pass 1  IDiag  1:
 E= -40.5046492622927     Delta-E=       -0.000000000017 Rises=F Damp=F
 DIIS: error= 2.72D-07 at cycle   4 NSaved=   4.
 NSaved= 4 IEnMin= 4 EnMin= -40.5046492622927     IErMin= 4 ErrMin= 2.72D-07
 ErrMax= 2.72D-07  0.00D+00 EMaxC= 1.00D+00 BMatC= 1.30D-12 BMatP= 1.78D-11
 IDIUse=1 WtCom= 1.00D+00 WtEn= 0.00D+00
 Coeff-Com: -0.237D-02 0.113D-01 0.218D+00 0.773D+00
 Coeff:     -0.237D-02 0.113D-01 0.218D+00 0.773D+00
 Gap=     0.532 Goal=   None    Shift=    0.000
 RMSDP=3.78D-08 MaxDP=2.98D-07 DE=-1.67D-11 OVMax= 3.24D-07

 Cycle  10  Pass 1  IDiag  1:
 E= -40.5046492622941     Delta-E=       -0.000000000001 Rises=F Damp=F
 DIIS: error= 2.73D-09 at cycle   5 NSaved=   5.
 NSaved= 5 IEnMin= 5 EnMin= -40.5046492622941     IErMin= 5 ErrMin= 2.73D-09
 ErrMax= 2.73D-09  0.00D+00 EMaxC= 1.00D+00 BMatC= 1.10D-16 BMatP= 1.30D-12
 IDIUse=1 WtCom= 1.00D+00 WtEn= 0.00D+00
 Coeff-Com:  0.778D-04-0.104D-02-0.491D-02-0.551D-02 0.101D+01
 Coeff:      0.778D-04-0.104D-02-0.491D-02-0.551D-02 0.101D+01
 Gap=     0.532 Goal=   None    Shift=    0.000
 RMSDP=7.16D-10 MaxDP=4.48D-09 DE=-1.35D-12 OVMax= 4.56D-09

 SCF Done:  E(RB3LYP) =  -40.5046492623     A.U. after   10 cycles
            NFock= 10  Conv=0.72D-09     -V/T= 1.9978
 KE= 4.059516509152D+01 PE=-1.218975864850D+02 EE= 2.657112755824D+01
 Leave Link  502 at Mon Apr 10 14:27:17 2017, MaxMem=  2013265920 cpu:        59.2
 (Enter /public/apps/gaussian//g09/l508.exe)
 QCSCF skips out because SCF is already converged.
 Leave Link  508 at Mon Apr 10 14:27:18 2017, MaxMem=  2013265920 cpu:         0.0
 (Enter /public/apps/gaussian//g09/l701.exe)
 Compute integral first derivatives.
 ... and contract with generalized density number  0.
 Leave Link  701 at Mon Apr 10 14:27:20 2017, MaxMem=  2013265920 cpu:         7.4
 (Enter /public/apps/gaussian//g09/l702.exe)
 L702 exits ... SP integral derivatives will be done elsewhere.
 Leave Link  702 at Mon Apr 10 14:27:20 2017, MaxMem=  2013265920 cpu:         0.3
 (Enter /public/apps/gaussian//g09/l703.exe)
 Compute integral first derivatives, UseDBF=F ICtDFT=           0.
 Integral derivatives from FoFJK, PRISM(SPDF).
 Calling FoFJK, ICntrl=      2127 FMM=F ISym2X=1 I1Cent= 0 IOpClX= 0 NMat=1 NMatS=1 NMatT=0.
 FoFJK:  IHMeth= 1 ICntrl=    2127 DoSepK=F KAlg= 0 I1Cent=   0 FoldK=F
 IRaf=         0 NMat=   1 IRICut=       1 DoRegI=T DoRafI=F ISym2E= 1.
 FoFCou: FMM=F IPFlag=           0 FMFlag=      100000 FMFlg1=         800
         NFxFlg=           0 DoJE=F BraDBF=F KetDBF=F FulRan=T
         wScrn=  0.000000 ICntrl=    2127 IOpCl=  0 I1Cent=           0 NGrid=           0
         NMat0=    1 NMatS0=      1 NMatT0=    0 NMatD0=    1 NMtDS0=    0 NMtDT0=    0
 Petite list used in FoFCou.
 Leave Link  703 at Mon Apr 10 14:27:22 2017, MaxMem=  2013265920 cpu:         4.8
 (Enter /public/apps/gaussian//g09/l716.exe)
 Dipole        = 8.88178420D-16 6.66133815D-16 2.22044605D-16
 ***** Axes restored to original set *****
 -------------------------------------------------------------------
 Center     Atomic                   Forces (Hartrees/Bohr)
 Number     Number              X              Y              Z
 -------------------------------------------------------------------
      1        6           0.000000000    0.000000000    0.000000000
      2        1           0.052480633   -0.000000037   -0.000000008
      3        1          -0.017493509    0.049479228   -0.000000022
      4        1          -0.017493568   -0.024739616   -0.042850242
      5        1          -0.017493555   -0.024739574    0.042850272
 -------------------------------------------------------------------
 Cartesian Forces:  Max     0.052480633 RMS     0.027100882
 Leave Link  716 at Mon Apr 10 14:27:22 2017, MaxMem=  2013265920 cpu:         0.4
 (Enter /public/apps/gaussian//g09/l103.exe)

 GradGradGradGradGradGradGradGradGradGradGradGradGradGradGradGradGradGrad
 Berny optimization.
 Using GEDIIS/GDIIS optimizer.
 FormGI is forming the generalized inverse of G from B-inverse, IUseBI=4.
 Internal  Forces:  Max     0.052480633 RMS     0.028052078
 Search for a local minimum.
 Step number   2 out of a maximum of   24
 All quantities printed in internal units (Hartrees-Bohrs-Radians)
 RMS Force = .28052D-01 SwitMx=.10000D-02 MixMth= 1
 Mixed Optimization -- RFO/linear search
 Update second derivatives using D2CorX and points    1    2
 DE= -5.77D-02 DEPred=-6.18D-02 R= 9.33D-01
 TightC=F SS=  1.41D+00  RLast= 3.00D-01 DXNew= 5.0454D-01 9.0000D-01
 Trust test= 9.33D-01 RLast= 3.00D-01 DXMaxT set to 5.05D-01
 The second derivative matrix:
                          R1        R2        R3        R4        A1
           R1           0.58904
           R2           0.01223   0.58904
           R3           0.01223   0.01223   0.58904
           R4           0.01223   0.01223   0.01223   0.58904
           A1           0.00000   0.00000   0.00000   0.00000   0.16000
           A2           0.00000   0.00000   0.00000   0.00000   0.00000
           A3           0.00000   0.00000   0.00000   0.00000   0.00000
           A4           0.00000   0.00000   0.00000   0.00000   0.00000
           A5           0.00000   0.00000   0.00000   0.00000   0.00000
           A6           0.00000   0.00000   0.00000   0.00000   0.00000
           D1           0.00000   0.00000   0.00000   0.00000   0.00000
           D2           0.00000   0.00000   0.00000   0.00000   0.00000
           D3           0.00000   0.00000   0.00000   0.00000   0.00000
           D4           0.00000   0.00000   0.00000   0.00000   0.00000
                          A2        A3        A4        A5        A6
           A2           0.16000
           A3           0.00000   0.16000
           A4           0.00000   0.00000   0.16000
           A5           0.00000   0.00000   0.00000   0.16000
           A6           0.00000   0.00000   0.00000   0.00000   0.16000
           D1           0.00000   0.00000   0.00000   0.00000   0.00000
           D2           0.00000   0.00000   0.00000   0.00000   0.00000
           D3           0.00000   0.00000   0.00000   0.00000   0.00000
           D4           0.00000   0.00000   0.00000   0.00000   0.00000
                          D1        D2        D3        D4
           D1           0.02087
           D2           0.00000   0.02087
           D3           0.00000   0.00000   0.02087
           D4           0.00000   0.00000   0.00000   0.02087
 ITU=  1  0
 Use linear search instead of GDIIS.
     Eigenvalues ---    0.06368   0.06926   0.09507   0.16000   0.16000
     Eigenvalues ---    0.57681   0.57681   0.57681   0.62573
 RFO step:  Lambda= 0.00000000D+00 EMin= 6.36775842D-02
 Quartic linear search produced a step of  0.86320.
 Iteration  1 RMS(Cart)=  0.06920962 RMS(Int)=  0.00000001
 Iteration  2 RMS(Cart)=  0.00000001 RMS(Int)=  0.00000000
 ITry= 1 IFail=0 DXMaxC= 1.29D-01 DCOld= 1.00D+10 DXMaxT= 5.05D-01 DXLimC= 3.00D+00 Rises=F
 ClnCor:  largest displacement from symmetrization is 2.46D-14 for atom     3.
 Variable       Old X    -DE/DX   Delta X   Delta X   Delta X     New X
                                 (Linear)    (Quad)   (Total)
    R1        1.94524   0.05248   0.12948   0.00000   0.12948   2.07472
    R2        1.94524   0.05248   0.12948   0.00000   0.12948   2.07472
    R3        1.94524   0.05248   0.12948   0.00000   0.12948   2.07472
    R4        1.94524   0.05248   0.12948   0.00000   0.12948   2.07472
    A1        1.91063   0.00000   0.00000   0.00000   0.00000   1.91063
    A2        1.91063   0.00000   0.00000   0.00000   0.00000   1.91063
    A3        1.91063   0.00000   0.00000   0.00000   0.00000   1.91063
    A4        1.91063   0.00000   0.00000   0.00000   0.00000   1.91063
    A5        1.91063   0.00000   0.00000   0.00000   0.00000   1.91063
    A6        1.91063   0.00000   0.00000   0.00000   0.00000   1.91063
    D1       -2.09440   0.00000   0.00000   0.00000   0.00000  -2.09440
    D2        2.09440   0.00000   0.00000   0.00000   0.00000   2.09440
    D3       -2.09440   0.00000   0.00000   0.00000   0.00000  -2.09440
    D4        2.09440   0.00000   0.00000   0.00000   0.00000   2.09440
         Item               Value     Threshold  Converged?
 Maximum Force            0.052481     0.000450     NO 
 RMS     Force            0.028052     0.000300     NO 
 Maximum Displacement     0.129479     0.001800     NO 
 RMS     Displacement     0.069210     0.001200     NO 
 Predicted change in Energy=-6.200109D-03
 Lowest energy point so far.  Saving SCF results.
 GradGradGradGradGradGradGradGradGradGradGradGradGradGradGradGradGradGrad

 Leave Link  103 at Mon Apr 10 14:27:29 2017, MaxMem=  2013265920 cpu:        19.8
 (Enter /public/apps/gaussian//g09/l202.exe)
                          Input orientation:                          
 ---------------------------------------------------------------------
 Center     Atomic      Atomic             Coordinates (Angstroms)
 Number     Number       Type             X           Y           Z
 ---------------------------------------------------------------------
      1          6           0        0.168553    0.336553   -0.000447
      2          1           0        1.266447    0.336552   -0.000447
      3          1           0       -0.197411    1.371657   -0.000448
      4          1           0       -0.197412   -0.181000   -0.896874
      5          1           0       -0.197412   -0.180999    0.895980
 ---------------------------------------------------------------------
                    Distance matrix (angstroms):
                    1          2          3          4          5
     1  C    0.000000
     2  H    1.097894   0.000000
     3  H    1.097894   1.792853   0.000000
     4  H    1.097894   1.792853   1.792853   0.000000
     5  H    1.097894   1.792853   1.792853   1.792853   0.000000
 Stoichiometry    CH4
 Framework group  TD[O(C),4C3(H)]
 Deg. of freedom     1
 Full point group                 TD      NOp  24
 RotChk:  IX=0 Diff= 2.89D-14
 Largest Abelian subgroup         D2      NOp   4
 Largest concise Abelian subgroup D2      NOp   4
                         Standard orientation:                         
 ---------------------------------------------------------------------
 Center     Atomic      Atomic             Coordinates (Angstroms)
 Number     Number       Type             X           Y           Z
 ---------------------------------------------------------------------
      1          6           0        0.000000    0.000000    0.000000
      2          1           0        0.633869    0.633869    0.633869
      3          1           0       -0.633869   -0.633869    0.633869
      4          1           0       -0.633869    0.633869   -0.633869
      5          1           0        0.633869   -0.633869   -0.633869
 ---------------------------------------------------------------------
 Rotational constants (GHZ):    156.0064114    156.0064114    156.0064114
 Leave Link  202 at Mon Apr 10 14:27:30 2017, MaxMem=  2013265920 cpu:         0.8
 (Enter /public/apps/gaussian//g09/l301.exe)
 Basis read from rwf:  (5D, 7F)
 No pseudopotential information found on rwf file.
 There are     8 symmetry adapted cartesian basis functions of A   symmetry.
 There are     5 symmetry adapted cartesian basis functions of B1  symmetry.
 There are     5 symmetry adapted cartesian basis functions of B2  symmetry.
 There are     5 symmetry adapted cartesian basis functions of B3  symmetry.
 There are     7 symmetry adapted basis functions of A   symmetry.
 There are     5 symmetry adapted basis functions of B1  symmetry.
 There are     5 symmetry adapted basis functions of B2  symmetry.
 There are     5 symmetry adapted basis functions of B3  symmetry.
    22 basis functions,    44 primitive gaussians,    23 cartesian basis functions
     5 alpha electrons        5 beta electrons
       nuclear repulsion energy        13.3387862330 Hartrees.
 IExCor=  402 DFT=T Ex+Corr=B3LYP ExCW=0 ScaHFX=  0.200000
 ScaDFX=  0.800000  0.720000  1.000000  0.810000 ScalE2=  1.000000  1.000000
 IRadAn=      0 IRanWt=     -1 IRanGd=            0 ICorTp=0 IEmpDi=  4
 NAtoms=    5 NActive=    5 NUniq=    2 SFac= 4.00D+00 NAtFMM=   60 NAOKFM=F Big=F
 Integral buffers will be    131072 words long.
 Raffenetti 2 integral format.
 Two-electron integral symmetry is turned on.
 No density basis found on file   724.
 Leave Link  301 at Mon Apr 10 14:27:30 2017, MaxMem=  2013265920 cpu:         0.7
 (Enter /public/apps/gaussian//g09/l302.exe)
 NPDir=0 NMtPBC=     1 NCelOv=     1 NCel=       1 NClECP=     1 NCelD=      1
         NCelK=      1 NCelE2=     1 NClLst=     1 CellRange=     0.0.
 One-electron integrals computed using PRISM.
 One-electron integral symmetry used in STVInt
 NBasis=    22 RedAO= T EigKep=  2.76D-02  NBF=     7     5     5     5
 NBsUse=    22 1.00D-06 EigRej= -1.00D+00 NBFU=     7     5     5     5
 Precomputing XC quadrature grid using
 IXCGrd= 4 IRadAn=           0 IRanWt=          -1 IRanGd=           0 AccXCQ= 0.00D+00.
 Generated NRdTot=       0 NPtTot=           0 NUsed=           0 NTot=          32
 NSgBfM=    23    23    23    23    23 MxSgAt=     5 MxSgA2=     5.
 Leave Link  302 at Mon Apr 10 14:27:31 2017, MaxMem=  2013265920 cpu:         4.7
 (Enter /public/apps/gaussian//g09/l303.exe)
 DipDrv:  MaxL=1.
 Leave Link  303 at Mon Apr 10 14:27:33 2017, MaxMem=  2013265920 cpu:         4.0
 (Enter /public/apps/gaussian//g09/l401.exe)
 Initial guess from the checkpoint file:  "1.chk"
 B after Tr=     0.000000    0.000000    0.000000
         Rot=    1.000000    0.000000    0.000000    0.000000 Ang=   0.00 deg.
 Guess basis will be translated and rotated to current coordinates.
 JPrj=2 DoOrth=T DoCkMO=T.
 Initial guess orbital symmetries:
       Occupied  (A1) (A1) (T2) (T2) (T2)
       Virtual   (A1) (E) (E) (A1) (A1) (T2) (T2) (T2) (T2) (T2)
                 (T2) (T2) (T2) (T2) (T2) (T2) (T2)
 The electronic state of the initial guess is 1-A1.
 Generating alternative initial guess.
 ExpMin= 1.61D-01 ExpMax= 3.05D+03 ExpMxC= 4.57D+02 IAcc=1 IRadAn=         1 AccDes= 0.00D+00
 Harris functional with IExCor=  402 and IRadAn=       1 diagonalized for initial guess.
 HarFok:  IExCor=  402 AccDes= 0.00D+00 IRadAn=         1 IDoV= 1 UseB2=F ITyADJ=14
 ICtDFT=  3500011 ScaDFX=  1.000000  1.000000  1.000000  1.000000
 FoFCou: FMM=F IPFlag=           0 FMFlag=      100000 FMFlg1=           0
         NFxFlg=           0 DoJE=T BraDBF=F KetDBF=T FulRan=T
         wScrn=  0.000000 ICntrl=     500 IOpCl=  0 I1Cent=   200000004 NGrid=           0
         NMat0=    1 NMatS0=      1 NMatT0=    0 NMatD0=    1 NMtDS0=    0 NMtDT0=    0
 Petite list used in FoFCou.
 Harris En= -40.5573516915362    
 Leave Link  401 at Mon Apr 10 14:27:38 2017, MaxMem=  2013265920 cpu:        18.6
 (Enter /public/apps/gaussian//g09/l502.exe)
 Closed shell SCF:
 Using DIIS extrapolation, IDIIS=  1040.
 Integral symmetry usage will be decided dynamically.
 Keep R1 ints in memory in symmetry-blocked form, NReq=913626.
 IVT=       20857 IEndB=       20857 NGot=  2013265920 MDV=  2013235789
 LenX=  2013235789 LenY=  2013234819
 Requested convergence on RMS density matrix=1.00D-08 within 128 cycles.
 Requested convergence on MAX density matrix=1.00D-06.
 Requested convergence on             energy=1.00D-06.
 No special actions if energy rises.
 FoFCou: FMM=F IPFlag=           0 FMFlag=           0 FMFlg1=           0
         NFxFlg=           0 DoJE=F BraDBF=F KetDBF=F FulRan=T
         wScrn=  0.000000 ICntrl=     600 IOpCl=  0 I1Cent=           0 NGrid=           0
         NMat0=    1 NMatS0=    253 NMatT0=    0 NMatD0=    1 NMtDS0=    0 NMtDT0=    0
 Petite list used in FoFCou.
 Integral accuracy reduced to 1.0D-05 until final iterations.

 Cycle   1  Pass 0  IDiag  1:
 E= -40.5140316610355    
 DIIS: error= 1.10D-02 at cycle   1 NSaved=   1.
 NSaved= 1 IEnMin= 1 EnMin= -40.5140316610355     IErMin= 1 ErrMin= 1.10D-02
 ErrMax= 1.10D-02  0.00D+00 EMaxC= 1.00D-01 BMatC= 2.31D-03 BMatP= 2.31D-03
 IDIUse=3 WtCom= 8.90D-01 WtEn= 1.10D-01
 Coeff-Com:  0.100D+01
 Coeff-En:   0.100D+01
 Coeff:      0.100D+01
 Recover alternate guess density for next cycle.
 RMSDP=9.56D-03 MaxDP=6.61D-02              OVMax= 0.00D+00

 Cycle   2  Pass 0  IDiag  1:
 E= -40.4298263968345     Delta-E=        0.084205264201 Rises=F Damp=F
 Switch densities from cycles 1 and 2 for lowest energy.
 DIIS: error= 6.95D-02 at cycle   2 NSaved=   2.
 NSaved= 2 IEnMin= 1 EnMin= -40.5140316610355     IErMin= 1 ErrMin= 1.10D-02
 ErrMax= 6.95D-02  0.00D+00 EMaxC= 1.00D+00 BMatC= 7.80D-02 BMatP= 2.31D-03
 IDIUse=1 WtCom= 1.00D+00 WtEn= 0.00D+00
 Coeff-Com:  0.116D+01-0.160D+00
 Coeff:      0.116D+01-0.160D+00
 Gap=     0.984 Goal=   None    Shift=    0.000
 RMSDP=2.24D-03 MaxDP=1.69D-02 DE= 8.42D-02 OVMax= 1.55D-02

 Cycle   3  Pass 0  IDiag  1:
 E= -40.5168619492396     Delta-E=       -0.087035552405 Rises=F Damp=F
 DIIS: error= 6.23D-04 at cycle   3 NSaved=   3.
 NSaved= 3 IEnMin= 3 EnMin= -40.5168619492396     IErMin= 3 ErrMin= 6.23D-04
 ErrMax= 6.23D-04  0.00D+00 EMaxC= 1.00D+00 BMatC= 6.42D-06 BMatP= 2.31D-03
 IDIUse=1 WtCom= 1.00D+00 WtEn= 0.00D+00
 Coeff-Com:  0.107D-02 0.714D-02 0.992D+00
 Coeff:      0.107D-02 0.714D-02 0.992D+00
 Gap=     0.505 Goal=   None    Shift=    0.000
 RMSDP=1.84D-04 MaxDP=1.38D-03 DE=-8.70D-02 OVMax= 1.01D-03

 Cycle   4  Pass 0  IDiag  1:
 E= -40.5168712189875     Delta-E=       -0.000009269748 Rises=F Damp=F
 DIIS: error= 3.00D-05 at cycle   4 NSaved=   4.
 NSaved= 4 IEnMin= 4 EnMin= -40.5168712189875     IErMin= 4 ErrMin= 3.00D-05
 ErrMax= 3.00D-05  0.00D+00 EMaxC= 1.00D+00 BMatC= 1.76D-08 BMatP= 6.42D-06
 IDIUse=1 WtCom= 1.00D+00 WtEn= 0.00D+00
 Coeff-Com: -0.354D-02 0.361D-03 0.182D-01 0.985D+00
 Coeff:     -0.354D-02 0.361D-03 0.182D-01 0.985D+00
 Gap=     0.505 Goal=   None    Shift=    0.000
 RMSDP=8.47D-06 MaxDP=3.97D-05 DE=-9.27D-06 OVMax= 5.72D-05

 Initial convergence to 1.0D-05 achieved.  Increase integral accuracy.
 Cycle   5  Pass 1  IDiag  1:
 E= -40.5168461106114     Delta-E=        0.000025108376 Rises=F Damp=F
 DIIS: error= 9.37D-06 at cycle   1 NSaved=   1.
 NSaved= 1 IEnMin= 1 EnMin= -40.5168461106114     IErMin= 1 ErrMin= 9.37D-06
 ErrMax= 9.37D-06  0.00D+00 EMaxC= 1.00D+00 BMatC= 2.58D-09 BMatP= 2.58D-09
 IDIUse=1 WtCom= 1.00D+00 WtEn= 0.00D+00
 Coeff-Com:  0.100D+01
 Coeff:      0.100D+01
 Gap=     0.505 Goal=   None    Shift=    0.000
 RMSDP=8.47D-06 MaxDP=3.97D-05 DE= 2.51D-05 OVMax= 2.89D-05

 Cycle   6  Pass 1  IDiag  1:
 E= -40.5168461156459     Delta-E=       -0.000000005034 Rises=F Damp=F
 DIIS: error= 1.62D-06 at cycle   2 NSaved=   2.
 NSaved= 2 IEnMin= 2 EnMin= -40.5168461156459     IErMin= 2 ErrMin= 1.62D-06
 ErrMax= 1.62D-06  0.00D+00 EMaxC= 1.00D+00 BMatC= 5.34D-11 BMatP= 2.58D-09
 IDIUse=1 WtCom= 1.00D+00 WtEn= 0.00D+00
 Coeff-Com:  0.238D-01 0.976D+00
 Coeff:      0.238D-01 0.976D+00
 Gap=     0.505 Goal=   None    Shift=    0.000
 RMSDP=9.10D-07 MaxDP=4.56D-06 DE=-5.03D-09 OVMax= 6.05D-06

 Cycle   7  Pass 1  IDiag  1:
 E= -40.5168461156609     Delta-E=       -0.000000000015 Rises=F Damp=F
 DIIS: error= 1.99D-06 at cycle   3 NSaved=   3.
 NSaved= 3 IEnMin= 3 EnMin= -40.5168461156609     IErMin= 2 ErrMin= 1.62D-06
 ErrMax= 1.99D-06  0.00D+00 EMaxC= 1.00D+00 BMatC= 7.07D-11 BMatP= 5.34D-11
 IDIUse=1 WtCom= 1.00D+00 WtEn= 0.00D+00
 Coeff-Com: -0.290D-01 0.531D+00 0.498D+00
 Coeff:     -0.290D-01 0.531D+00 0.498D+00
 Gap=     0.505 Goal=   None    Shift=    0.000
 RMSDP=2.70D-07 MaxDP=2.15D-06 DE=-1.50D-11 OVMax= 2.40D-06

 Cycle   8  Pass 1  IDiag  1:
 E= -40.5168461157332     Delta-E=       -0.000000000072 Rises=F Damp=F
 DIIS: error= 2.40D-08 at cycle   4 NSaved=   4.
 NSaved= 4 IEnMin= 4 EnMin= -40.5168461157332     IErMin= 4 ErrMin= 2.40D-08
 ErrMax= 2.40D-08  0.00D+00 EMaxC= 1.00D+00 BMatC= 1.48D-14 BMatP= 5.34D-11
 IDIUse=1 WtCom= 1.00D+00 WtEn= 0.00D+00
 Coeff-Com: -0.233D-02 0.135D-01 0.133D-01 0.975D+00
 Coeff:     -0.233D-02 0.135D-01 0.133D-01 0.975D+00
 Gap=     0.505 Goal=   None    Shift=    0.000
 RMSDP=8.47D-09 MaxDP=3.82D-08 DE=-7.23D-11 OVMax= 6.51D-08

 SCF Done:  E(RB3LYP) =  -40.5168461157     A.U. after    8 cycles
            NFock=  8  Conv=0.85D-08     -V/T= 2.0077
 KE= 4.020815955982D+01 PE=-1.198726373140D+02 EE= 2.580884540542D+01
 Leave Link  502 at Mon Apr 10 14:27:45 2017, MaxMem=  2013265920 cpu:        31.1
 (Enter /public/apps/gaussian//g09/l508.exe)
 QCSCF skips out because SCF is already converged.
 Leave Link  508 at Mon Apr 10 14:27:45 2017, MaxMem=  2013265920 cpu:         0.0
 (Enter /public/apps/gaussian//g09/l701.exe)
 Compute integral first derivatives.
 ... and contract with generalized density number  0.
 Leave Link  701 at Mon Apr 10 14:27:47 2017, MaxMem=  2013265920 cpu:         7.4
 (Enter /public/apps/gaussian//g09/l702.exe)
 L702 exits ... SP integral derivatives will be done elsewhere.
 Leave Link  702 at Mon Apr 10 14:27:48 2017, MaxMem=  2013265920 cpu:         0.3
 (Enter /public/apps/gaussian//g09/l703.exe)
 Compute integral first derivatives, UseDBF=F ICtDFT=           0.
 Integral derivatives from FoFJK, PRISM(SPDF).
 Calling FoFJK, ICntrl=      2127 FMM=F ISym2X=1 I1Cent= 0 IOpClX= 0 NMat=1 NMatS=1 NMatT=0.
 FoFJK:  IHMeth= 1 ICntrl=    2127 DoSepK=F KAlg= 0 I1Cent=   0 FoldK=F
 IRaf=         0 NMat=   1 IRICut=       1 DoRegI=T DoRafI=F ISym2E= 1.
 FoFCou: FMM=F IPFlag=           0 FMFlag=      100000 FMFlg1=         800
         NFxFlg=           0 DoJE=F BraDBF=F KetDBF=F FulRan=T
         wScrn=  0.000000 ICntrl=    2127 IOpCl=  0 I1Cent=           0 NGrid=           0
         NMat0=    1 NMatS0=      1 NMatT0=    0 NMatD0=    1 NMtDS0=    0 NMtDT0=    0
 Petite list used in FoFCou.
 Leave Link  703 at Mon Apr 10 14:27:49 2017, MaxMem=  2013265920 cpu:         2.8
 (Enter /public/apps/gaussian//g09/l716.exe)
 Dipole        =-2.22044605D-16 0.00000000D+00-6.66133815D-16
 ***** Axes restored to original set *****
 -------------------------------------------------------------------
 Center     Atomic                   Forces (Hartrees/Bohr)
 Number     Number              X              Y              Z
 -------------------------------------------------------------------
      1        6           0.000000000    0.000000000    0.000000000
      2        1          -0.002029764    0.000000001    0.000000000
      3        1           0.000676587   -0.001913680    0.000000001
      4        1           0.000676589    0.000956840    0.001657295
      5        1           0.000676588    0.000956839   -0.001657296
 -------------------------------------------------------------------
 Cartesian Forces:  Max     0.002029764 RMS     0.001048166
 Leave Link  716 at Mon Apr 10 14:27:49 2017, MaxMem=  2013265920 cpu:         0.3
 (Enter /public/apps/gaussian//g09/l103.exe)

 GradGradGradGradGradGradGradGradGradGradGradGradGradGradGradGradGradGrad
 Berny optimization.
 Using GEDIIS/GDIIS optimizer.
 FormGI is forming the generalized inverse of G from B-inverse, IUseBI=4.
 Internal  Forces:  Max     0.002029764 RMS     0.001084954
 Search for a local minimum.
 Step number   3 out of a maximum of   24
 All quantities printed in internal units (Hartrees-Bohrs-Radians)
 RMS Force = .10850D-02 SwitMx=.10000D-02 MixMth= 1
 Mixed Optimization -- RFO/linear search
 Update second derivatives using D2CorX and points    1    2    3
 DE= -1.22D-02 DEPred=-6.20D-03 R= 1.97D+00
 TightC=F SS=  1.41D+00  RLast= 2.59D-01 DXNew= 8.4853D-01 7.7688D-01
 Trust test= 1.97D+00 RLast= 2.59D-01 DXMaxT set to 7.77D-01
 The second derivative matrix:
                          R1        R2        R3        R4        A1
           R1           0.53786
           R2          -0.03895   0.53786
           R3          -0.03895  -0.03895   0.53786
           R4          -0.03895  -0.03895  -0.03895   0.53786
           A1           0.00000   0.00000   0.00000   0.00000   0.16000
           A2           0.00000   0.00000   0.00000   0.00000   0.00000
           A3           0.00000   0.00000   0.00000   0.00000   0.00000
           A4           0.00000   0.00000   0.00000   0.00000   0.00000
           A5           0.00000   0.00000   0.00000   0.00000   0.00000
           A6           0.00000   0.00000   0.00000   0.00000   0.00000
           D1           0.00000   0.00000   0.00000   0.00000   0.00000
           D2           0.00000   0.00000   0.00000   0.00000   0.00000
           D3           0.00000   0.00000   0.00000   0.00000   0.00000
           D4           0.00000   0.00000   0.00000   0.00000   0.00000
                          A2        A3        A4        A5        A6
           A2           0.16000
           A3           0.00000   0.16000
           A4           0.00000   0.00000   0.16000
           A5           0.00000   0.00000   0.00000   0.16000
           A6           0.00000   0.00000   0.00000   0.00000   0.16000
           D1           0.00000   0.00000   0.00000   0.00000   0.00000
           D2           0.00000   0.00000   0.00000   0.00000   0.00000
           D3           0.00000   0.00000   0.00000   0.00000   0.00000
           D4           0.00000   0.00000   0.00000   0.00000   0.00000
                          D1        D2        D3        D4
           D1           0.02087
           D2           0.00000   0.02087
           D3           0.00000   0.00000   0.02087
           D4           0.00000   0.00000   0.00000   0.02087
 ITU=  1  1  0
 Use linear search instead of GDIIS.
     Eigenvalues ---    0.06368   0.06926   0.09507   0.16000   0.16000
     Eigenvalues ---    0.42100   0.57681   0.57681   0.57681
 RFO step:  Lambda= 0.00000000D+00 EMin= 6.36775842D-02
 Quartic linear search produced a step of -0.04493.
 Iteration  1 RMS(Cart)=  0.00310948 RMS(Int)=  0.00000000
 Iteration  2 RMS(Cart)=  0.00000000 RMS(Int)=  0.00000000
 ITry= 1 IFail=0 DXMaxC= 5.82D-03 DCOld= 1.00D+10 DXMaxT= 7.77D-01 DXLimC= 3.00D+00 Rises=F
 ClnCor:  largest displacement from symmetrization is 2.09D-14 for atom     5.
 Variable       Old X    -DE/DX   Delta X   Delta X   Delta X     New X
                                 (Linear)    (Quad)   (Total)
    R1        2.07472  -0.00203  -0.00582   0.00000  -0.00582   2.06890
    R2        2.07472  -0.00203  -0.00582   0.00000  -0.00582   2.06890
    R3        2.07472  -0.00203  -0.00582   0.00000  -0.00582   2.06890
    R4        2.07472  -0.00203  -0.00582   0.00000  -0.00582   2.06890
    A1        1.91063   0.00000   0.00000   0.00000   0.00000   1.91063
    A2        1.91063   0.00000   0.00000   0.00000   0.00000   1.91063
    A3        1.91063   0.00000   0.00000   0.00000   0.00000   1.91063
    A4        1.91063   0.00000   0.00000   0.00000   0.00000   1.91063
    A5        1.91063   0.00000   0.00000   0.00000   0.00000   1.91063
    A6        1.91063   0.00000   0.00000   0.00000   0.00000   1.91063
    D1       -2.09440   0.00000   0.00000   0.00000   0.00000  -2.09440
    D2        2.09440   0.00000   0.00000   0.00000   0.00000   2.09440
    D3       -2.09440   0.00000   0.00000   0.00000   0.00000  -2.09440
    D4        2.09440   0.00000   0.00000   0.00000   0.00000   2.09440
         Item               Value     Threshold  Converged?
 Maximum Force            0.002030     0.000450     NO 
 RMS     Force            0.001085     0.000300     NO 
 Maximum Displacement     0.005817     0.001800     NO 
 RMS     Displacement     0.003109     0.001200     NO 
 Predicted change in Energy=-1.873709D-05
 Lowest energy point so far.  Saving SCF results.
 GradGradGradGradGradGradGradGradGradGradGradGradGradGradGradGradGradGrad

 Leave Link  103 at Mon Apr 10 14:27:56 2017, MaxMem=  2013265920 cpu:        17.9
 (Enter /public/apps/gaussian//g09/l202.exe)
                          Input orientation:                          
 ---------------------------------------------------------------------
 Center     Atomic      Atomic             Coordinates (Angstroms)
 Number     Number       Type             X           Y           Z
 ---------------------------------------------------------------------
      1          6           0        0.168553    0.336553   -0.000447
      2          1           0        1.263368    0.336552   -0.000447
      3          1           0       -0.196385    1.368755   -0.000448
      4          1           0       -0.196386   -0.179549   -0.894360
      5          1           0       -0.196386   -0.179548    0.893466
 ---------------------------------------------------------------------
                    Distance matrix (angstroms):
                    1          2          3          4          5
     1  C    0.000000
     2  H    1.094816   0.000000
     3  H    1.094816   1.787827   0.000000
     4  H    1.094816   1.787827   1.787827   0.000000
     5  H    1.094816   1.787827   1.787827   1.787827   0.000000
 Stoichiometry    CH4
 Framework group  TD[O(C),4C3(H)]
 Deg. of freedom     1
 Full point group                 TD      NOp  24
 RotChk:  IX=0 Diff= 6.57D-15
 Largest Abelian subgroup         D2      NOp   4
 Largest concise Abelian subgroup D2      NOp   4
                         Standard orientation:                         
 ---------------------------------------------------------------------
 Center     Atomic      Atomic             Coordinates (Angstroms)
 Number     Number       Type             X           Y           Z
 ---------------------------------------------------------------------
      1          6           0        0.000000    0.000000    0.000000
      2          1           0        0.632092    0.632092    0.632092
      3          1           0       -0.632092   -0.632092    0.632092
      4          1           0       -0.632092    0.632092   -0.632092
      5          1           0        0.632092   -0.632092   -0.632092
 ---------------------------------------------------------------------
 Rotational constants (GHZ):    156.8849571    156.8849571    156.8849571
 Leave Link  202 at Mon Apr 10 14:27:56 2017, MaxMem=  2013265920 cpu:         0.7
 (Enter /public/apps/gaussian//g09/l301.exe)
 Basis read from rwf:  (5D, 7F)
 No pseudopotential information found on rwf file.
 There are     8 symmetry adapted cartesian basis functions of A   symmetry.
 There are     5 symmetry adapted cartesian basis functions of B1  symmetry.
 There are     5 symmetry adapted cartesian basis functions of B2  symmetry.
 There are     5 symmetry adapted cartesian basis functions of B3  symmetry.
 There are     7 symmetry adapted basis functions of A   symmetry.
 There are     5 symmetry adapted basis functions of B1  symmetry.
 There are     5 symmetry adapted basis functions of B2  symmetry.
 There are     5 symmetry adapted basis functions of B3  symmetry.
    22 basis functions,    44 primitive gaussians,    23 cartesian basis functions
     5 alpha electrons        5 beta electrons
       nuclear repulsion energy        13.3762920030 Hartrees.
 IExCor=  402 DFT=T Ex+Corr=B3LYP ExCW=0 ScaHFX=  0.200000
 ScaDFX=  0.800000  0.720000  1.000000  0.810000 ScalE2=  1.000000  1.000000
 IRadAn=      0 IRanWt=     -1 IRanGd=            0 ICorTp=0 IEmpDi=  4
 NAtoms=    5 NActive=    5 NUniq=    2 SFac= 4.00D+00 NAtFMM=   60 NAOKFM=F Big=F
 Integral buffers will be    131072 words long.
 Raffenetti 2 integral format.
 Two-electron integral symmetry is turned on.
 No density basis found on file   724.
 Leave Link  301 at Mon Apr 10 14:27:56 2017, MaxMem=  2013265920 cpu:         0.6
 (Enter /public/apps/gaussian//g09/l302.exe)
 NPDir=0 NMtPBC=     1 NCelOv=     1 NCel=       1 NClECP=     1 NCelD=      1
         NCelK=      1 NCelE2=     1 NClLst=     1 CellRange=     0.0.
 One-electron integrals computed using PRISM.
 One-electron integral symmetry used in STVInt
 NBasis=    22 RedAO= T EigKep=  2.73D-02  NBF=     7     5     5     5
 NBsUse=    22 1.00D-06 EigRej= -1.00D+00 NBFU=     7     5     5     5
 Precomputing XC quadrature grid using
 IXCGrd= 4 IRadAn=           0 IRanWt=          -1 IRanGd=           0 AccXCQ= 0.00D+00.
 Generated NRdTot=       0 NPtTot=           0 NUsed=           0 NTot=          32
 NSgBfM=    23    23    23    23    23 MxSgAt=     5 MxSgA2=     5.
 Leave Link  302 at Mon Apr 10 14:27:57 2017, MaxMem=  2013265920 cpu:         3.6
 (Enter /public/apps/gaussian//g09/l303.exe)
 DipDrv:  MaxL=1.
 Leave Link  303 at Mon Apr 10 14:27:59 2017, MaxMem=  2013265920 cpu:         2.9
 (Enter /public/apps/gaussian//g09/l401.exe)
 Initial guess from the checkpoint file:  "1.chk"
 B after Tr=     0.000000    0.000000    0.000000
         Rot=    1.000000    0.000000    0.000000    0.000000 Ang=   0.00 deg.
 Guess basis will be translated and rotated to current coordinates.
 JPrj=2 DoOrth=T DoCkMO=T.
 Initial guess orbital symmetries:
       Occupied  (A1) (A1) (T2) (T2) (T2)
       Virtual   (A1) (E) (E) (A1) (A1) (T2) (T2) (T2) (T2) (T2)
                 (T2) (T2) (T2) (T2) (T2) (T2) (T2)
 The electronic state of the initial guess is 1-A1.
 Leave Link  401 at Mon Apr 10 14:28:04 2017, MaxMem=  2013265920 cpu:        14.0
 (Enter /public/apps/gaussian//g09/l502.exe)
 Closed shell SCF:
 Using DIIS extrapolation, IDIIS=  1040.
 Integral symmetry usage will be decided dynamically.
 Keep R1 ints in memory in symmetry-blocked form, NReq=913626.
 IVT=       20857 IEndB=       20857 NGot=  2013265920 MDV=  2013235789
 LenX=  2013235789 LenY=  2013234819
 Requested convergence on RMS density matrix=1.00D-08 within 128 cycles.
 Requested convergence on MAX density matrix=1.00D-06.
 Requested convergence on             energy=1.00D-06.
 No special actions if energy rises.
 FoFCou: FMM=F IPFlag=           0 FMFlag=           0 FMFlg1=           0
         NFxFlg=           0 DoJE=F BraDBF=F KetDBF=F FulRan=T
         wScrn=  0.000000 ICntrl=     600 IOpCl=  0 I1Cent=           0 NGrid=           0
         NMat0=    1 NMatS0=    253 NMatT0=    0 NMatD0=    1 NMtDS0=    0 NMtDT0=    0
 Petite list used in FoFCou.

 Cycle   1  Pass 1  IDiag  1:
 E= -40.5168644870266    
 DIIS: error= 4.69D-04 at cycle   1 NSaved=   1.
 NSaved= 1 IEnMin= 1 EnMin= -40.5168644870266     IErMin= 1 ErrMin= 4.69D-04
 ErrMax= 4.69D-04  0.00D+00 EMaxC= 1.00D-01 BMatC= 4.22D-06 BMatP= 4.22D-06
 IDIUse=3 WtCom= 9.95D-01 WtEn= 4.69D-03
 Coeff-Com:  0.100D+01
 Coeff-En:   0.100D+01
 Coeff:      0.100D+01
 Gap=     0.961 Goal=   None    Shift=    0.000
 RMSDP=1.50D-04 MaxDP=1.04D-03              OVMax= 1.21D-03

 Cycle   2  Pass 1  IDiag  1:
 E= -40.5168653565282     Delta-E=       -0.000000869502 Rises=F Damp=F
 DIIS: error= 4.82D-04 at cycle   2 NSaved=   2.
 NSaved= 2 IEnMin= 2 EnMin= -40.5168653565282     IErMin= 1 ErrMin= 4.69D-04
 ErrMax= 4.82D-04  0.00D+00 EMaxC= 1.00D-01 BMatC= 4.12D-06 BMatP= 4.22D-06
 IDIUse=3 WtCom= 9.95D-01 WtEn= 4.82D-03
 Coeff-Com:  0.497D+00 0.503D+00
 Coeff-En:   0.446D+00 0.554D+00
 Coeff:      0.496D+00 0.504D+00
 Gap=     0.506 Goal=   None    Shift=    0.000
 RMSDP=7.73D-05 MaxDP=5.65D-04 DE=-8.70D-07 OVMax= 6.63D-04

 Cycle   3  Pass 1  IDiag  1:
 E= -40.5168696461787     Delta-E=       -0.000004289651 Rises=F Damp=F
 DIIS: error= 4.27D-05 at cycle   3 NSaved=   3.
 NSaved= 3 IEnMin= 3 EnMin= -40.5168696461787     IErMin= 3 ErrMin= 4.27D-05
 ErrMax= 4.27D-05  0.00D+00 EMaxC= 1.00D-01 BMatC= 3.48D-08 BMatP= 4.12D-06
 IDIUse=1 WtCom= 1.00D+00 WtEn= 0.00D+00
 Coeff-Com:  0.868D-02 0.882D-01 0.903D+00
 Coeff:      0.868D-02 0.882D-01 0.903D+00
 Gap=     0.506 Goal=   None    Shift=    0.000
 RMSDP=5.72D-06 MaxDP=5.04D-05 DE=-4.29D-06 OVMax= 5.64D-05

 Cycle   4  Pass 1  IDiag  1:
[...]
 Atom     2 has atomic number  1 and mass   1.00783
 Atom     3 has atomic number  1 and mass   1.00783
 Atom     4 has atomic number  1 and mass   1.00783
 Atom     5 has atomic number  1 and mass   1.00783
 Molecular mass:    16.03130 amu.
 Principal axes and moments of inertia in atomic units:
                           1         2         3
     Eigenvalues --    11.50360  11.50360  11.50360
           X            0.62835   0.77786   0.01061
           Y            0.76928  -0.61927  -0.15721
           Z            0.11572  -0.10694   0.98751
 This molecule is a spherical top.
 Rotational symmetry number 12.
 Rotational temperatures (Kelvin)      7.52928     7.52928     7.52928
 Rotational constants (GHZ):         156.88496   156.88496   156.88496
 Zero-point vibrational energy     118368.3 (Joules/Mol)
                                   28.29071 (Kcal/Mol)
 Vibrational temperatures:   1958.53  1958.53  1958.53  2287.13  2287.13
          (Kelvin)           4380.78  4547.40  4547.40  4547.40
 
 Zero-point correction=                           0.045084 (Hartree/Particle)
 Thermal correction to Energy=                    0.047950
 Thermal correction to Enthalpy=                  0.048894
 Thermal correction to Gibbs Free Energy=         0.027757
 Sum of electronic and zero-point Energies=            -40.471786
 Sum of electronic and thermal Energies=               -40.468920
 Sum of electronic and thermal Enthalpies=             -40.467976
 Sum of electronic and thermal Free Energies=          -40.489113
 
                     E (Thermal)             CV                S
                      KCal/Mol        Cal/Mol-Kelvin    Cal/Mol-Kelvin
 Total                   30.089              6.433             44.487
 Electronic               0.000              0.000              0.000
 Translational            0.889              2.981             34.261
 Rotational               0.889              2.981             10.146
 Vibrational             28.311              0.472              0.080
                       Q            Log10(Q)             Ln(Q)
 Total Bot       0.170941D-12        -12.767154        -29.397458
 Total V=0       0.933381D+08          7.970059         18.351739
 Vib (Bot)       0.184087D-20        -20.734978        -47.744051
 Vib (V=0)       0.100516D+01          0.002235          0.005146
 Electronic      0.100000D+01          0.000000          0.000000
 Translational   0.252295D+07          6.401908         14.740939
 Rotational      0.368057D+02          1.565916          3.605654
 
                                                             methane.car
                                                             IR Spectrum
 
      3   3                                                          1        1                                                      
      1   0                                                          5        3                                                      
      6   4                                                          9        6                                                      
      1   5                                                          0        1                                                      
 
      X                                                                       X                                                      
      X                                                                       X                                                      
      X                                                                       X                                                      
      X                                                                       X                                                      
      X                                                                       X                                                      
      X                                                                       X                                                      
      X                                                                       X                                                      
      X                                                                       X                                                      
      X                                                                       X                                                      
      X                                                                       X                                                      
      X                                                                       X                                                      
      X                                                                       X                                                      
      X                                                                                                                              
      X                                                                                                                              
      X                                                                                                                              
      X                                                                                                                              
      X                                                                                                                              
      X                                                                                                                              
      X                                                                                                                              
      X                                                                                                                              
 
 ***** Axes restored to original set *****
 -------------------------------------------------------------------
 Center     Atomic                   Forces (Hartrees/Bohr)
 Number     Number              X              Y              Z
 -------------------------------------------------------------------
      1        6           0.000000000    0.000000000    0.000000000
      2        1           0.000009979    0.000000000    0.000000000
      3        1          -0.000003326    0.000009408    0.000000000
      4        1          -0.000003326   -0.000004704   -0.000008148
      5        1          -0.000003326   -0.000004704    0.000008148
 -------------------------------------------------------------------
 Cartesian Forces:  Max     0.000009979 RMS     0.000005153
 Force constants in Cartesian coordinates: 
                1             2             3             4             5 
      1  0.557895D+00
      2  0.000000D+00  0.557895D+00
      3  0.000000D+00  0.000000D+00  0.557895D+00
      4 -0.323063D+00  0.000000D+00  0.000000D+00  0.347728D+00
      5  0.000000D+00 -0.476792D-01  0.000000D+00  0.000000D+00  0.462860D-01
      6  0.000000D+00  0.000000D+00 -0.476792D-01  0.000000D+00  0.000000D+00
      7 -0.782773D-01  0.865447D-01  0.000000D+00 -0.822151D-02  0.322998D-01
      8  0.865447D-01 -0.292465D+00  0.000000D+00 -0.835694D-03  0.290268D-02
      9  0.000000D+00  0.000000D+00 -0.476792D-01  0.000000D+00  0.000000D+00
     10 -0.782775D-01 -0.432725D-01 -0.749501D-01 -0.822155D-02 -0.161499D-01
     11 -0.432725D-01 -0.108876D+00 -0.105995D+00  0.417857D-03 -0.754770D-03
     12 -0.749501D-01 -0.105995D+00 -0.231268D+00  0.723742D-03  0.211165D-02
     13 -0.782774D-01 -0.432724D-01  0.749501D-01 -0.822154D-02 -0.161499D-01
     14 -0.432724D-01 -0.108875D+00  0.105995D+00  0.417856D-03 -0.754774D-03
     15  0.749501D-01  0.105995D+00 -0.231269D+00 -0.723740D-03 -0.211165D-02
                6             7             8             9            10 
      6  0.462860D-01
      7  0.000000D+00  0.797794D-01
      8  0.000000D+00 -0.947339D-01  0.314234D+00
      9 -0.197394D-02  0.000000D+00  0.000000D+00  0.462860D-01
     10 -0.279724D-01  0.335968D-02  0.451242D-02  0.113150D-01  0.797796D-01
     11  0.211167D-02 -0.120553D-01 -0.123360D-01 -0.256688D-01  0.473671D-01
     12  0.168354D-02  0.174964D-02  0.138624D-02  0.168355D-02  0.820422D-01
     13  0.279724D-01  0.335967D-02  0.451241D-02 -0.113150D-01  0.335969D-02
     14 -0.211167D-02 -0.120553D-01 -0.123360D-01  0.256688D-01  0.754289D-02
     15  0.168354D-02 -0.174963D-02 -0.138622D-02  0.168353D-02  0.956539D-02
               11            12            13            14            15 
     11  0.113273D+00
     12  0.116025D+00  0.247247D+00
     13  0.754289D-02 -0.956541D-02  0.797796D-01
     14  0.869330D-02 -0.135275D-01  0.473670D-01  0.113273D+00
     15  0.135275D-01 -0.193458D-01 -0.820421D-01 -0.116025D+00  0.247247D+00
 FormGI is forming the generalized inverse of G from B-inverse, IUseBI=4.
 Force constants in internal coordinates: 
                1             2             3             4             5 
      1  0.347728D+00
      2  0.195260D-02  0.347728D+00
      3  0.195260D-02  0.195260D-02  0.347728D+00
      4  0.195260D-02  0.195260D-02  0.195260D-02  0.347728D+00
      5  0.183170D-02  0.183170D-02 -0.115014D-02 -0.251326D-02  0.203557D-01
      6  0.287071D-02 -0.740828D-03  0.319482D-02 -0.532470D-02 -0.907824D-02
      7  0.560992D-02 -0.450238D-02 -0.498392D-02  0.387638D-02 -0.135078D-01
      8 -0.740828D-03  0.287071D-02  0.319482D-02 -0.532470D-02 -0.907824D-02
      9 -0.450238D-02  0.560992D-02 -0.498392D-02  0.387638D-02 -0.135078D-01
     10 -0.506912D-02 -0.506912D-02  0.472834D-02  0.540990D-02  0.248165D-01
     11 -0.354764D-02 -0.354764D-02 -0.250422D-02  0.959951D-02 -0.138120D-01
     12  0.292159D-02  0.292159D-02 -0.751266D-02  0.166948D-02  0.838689D-02
     13 -0.384706D-02  0.676865D-02 -0.375633D-02  0.834740D-03  0.419344D-02
     14 -0.676865D-02  0.384706D-02  0.375633D-02 -0.834740D-03 -0.419344D-02
                6             7             8             9            10 
      6  0.383301D-01
      7 -0.233203D-01  0.748852D-01
      8 -0.221910D-02  0.257697D-01  0.383301D-01
      9  0.257697D-01 -0.363877D-01 -0.233203D-01  0.748852D-01
     10 -0.294822D-01 -0.274391D-01 -0.294822D-01 -0.274391D-01  0.890263D-01
     11 -0.109949D-01  0.150437D-01 -0.109949D-01  0.150437D-01  0.571440D-02
     12 -0.961856D-02  0.703118D-02 -0.961856D-02  0.703118D-02 -0.321212D-02
     13 -0.146098D-01 -0.493262D-03  0.499126D-02  0.752444D-02 -0.160606D-02
     14 -0.499126D-02 -0.752444D-02  0.146098D-01  0.493262D-03  0.160606D-02
               11            12            13            14 
     11  0.303821D-01
     12  0.150849D-02  0.188832D-01
     13  0.754245D-03  0.944160D-02  0.191789D-01
     14 -0.754245D-03 -0.944160D-02  0.973728D-02  0.191789D-01
 Leave Link  716 at Mon Apr 10 14:29:13 2017, MaxMem=  2013265920 cpu:        15.6
 (Enter /public/apps/gaussian//g09/l103.exe)

 GradGradGradGradGradGradGradGradGradGradGradGradGradGradGradGradGradGrad
 Berny optimization.
 Red2BG is reusing G-inverse.
 Internal  Forces:  Max     0.000009979 RMS     0.000005334
 Search for a local minimum.
 Step number   1 out of a maximum of    2
 All quantities printed in internal units (Hartrees-Bohrs-Radians)
 Second derivative matrix not updated -- analytic derivatives used.
 The second derivative matrix:
                          R1        R2        R3        R4        A1
           R1           0.34773
           R2           0.00195   0.34773
           R3           0.00195   0.00195   0.34773
           R4           0.00195   0.00195   0.00195   0.34773
           A1           0.00183   0.00183  -0.00115  -0.00251   0.02036
           A2           0.00287  -0.00074   0.00319  -0.00532  -0.00908
           A3           0.00561  -0.00450  -0.00498   0.00388  -0.01351
           A4          -0.00074   0.00287   0.00319  -0.00532  -0.00908
           A5          -0.00450   0.00561  -0.00498   0.00388  -0.01351
           A6          -0.00507  -0.00507   0.00473   0.00541   0.02482
           D1          -0.00355  -0.00355  -0.00250   0.00960  -0.01381
           D2           0.00292   0.00292  -0.00751   0.00167   0.00839
           D3          -0.00385   0.00677  -0.00376   0.00083   0.00419
           D4          -0.00677   0.00385   0.00376  -0.00083  -0.00419
                          A2        A3        A4        A5        A6
           A2           0.03833
           A3          -0.02332   0.07489
           A4          -0.00222   0.02577   0.03833
           A5           0.02577  -0.03639  -0.02332   0.07489
           A6          -0.02948  -0.02744  -0.02948  -0.02744   0.08903
           D1          -0.01099   0.01504  -0.01099   0.01504   0.00571
           D2          -0.00962   0.00703  -0.00962   0.00703  -0.00321
           D3          -0.01461  -0.00049   0.00499   0.00752  -0.00161
           D4          -0.00499  -0.00752   0.01461   0.00049   0.00161
                          D1        D2        D3        D4
           D1           0.03038
           D2           0.00151   0.01888
           D3           0.00075   0.00944   0.01918
           D4          -0.00075  -0.00944   0.00974   0.01918
 ITU=  0
     Eigenvalues ---    0.03881   0.04371   0.06637   0.13563   0.13620
     Eigenvalues ---    0.34659   0.34660   0.34685   0.35359
 Angle between quadratic step and forces=   0.00 degrees.
 Linear search not attempted -- first point.
 Iteration  1 RMS(Cart)=  0.00001509 RMS(Int)=  0.00000000
 Iteration  2 RMS(Cart)=  0.00000000 RMS(Int)=  0.00000000
 ITry= 1 IFail=0 DXMaxC= 2.82D-05 DCOld= 1.00D+10 DXMaxT= 3.00D-01 DXLimC= 3.00D+00 Rises=F
 ClnCor:  largest displacement from symmetrization is 2.03D-14 for atom     5.
 Variable       Old X    -DE/DX   Delta X   Delta X   Delta X     New X
                                 (Linear)    (Quad)   (Total)
    R1        2.06890   0.00001   0.00000   0.00003   0.00003   2.06893
    R2        2.06890   0.00001   0.00000   0.00003   0.00003   2.06893
    R3        2.06890   0.00001   0.00000   0.00003   0.00003   2.06893
    R4        2.06890   0.00001   0.00000   0.00003   0.00003   2.06893
    A1        1.91063   0.00000   0.00000   0.00000   0.00000   1.91063
    A2        1.91063   0.00000   0.00000   0.00000   0.00000   1.91063
    A3        1.91063   0.00000   0.00000   0.00000   0.00000   1.91063
    A4        1.91063   0.00000   0.00000   0.00000   0.00000   1.91063
    A5        1.91063   0.00000   0.00000   0.00000   0.00000   1.91063
    A6        1.91063   0.00000   0.00000   0.00000   0.00000   1.91063
    D1       -2.09440   0.00000   0.00000   0.00000   0.00000  -2.09440
    D2        2.09440   0.00000   0.00000   0.00000   0.00000   2.09440
    D3       -2.09440   0.00000   0.00000   0.00000   0.00000  -2.09440
    D4        2.09440   0.00000   0.00000   0.00000   0.00000   2.09440
         Item               Value     Threshold  Converged?
 Maximum Force            0.000010     0.000450     YES
 RMS     Force            0.000005     0.000300     YES
 Maximum Displacement     0.000028     0.001800     YES
 RMS     Displacement     0.000015     0.001200     YES
 Predicted change in Energy=-5.632824D-10
 Optimization completed.
    -- Stationary point found.
                           ----------------------------
                           !   Optimized Parameters   !
                           ! (Angstroms and Degrees)  !
 --------------------------                            --------------------------
 ! Name  Definition              Value          Derivative Info.                !
 --------------------------------------------------------------------------------
 ! R1    R(1,2)                  1.0948         -DE/DX =    0.0                 !
 ! R2    R(1,3)                  1.0948         -DE/DX =    0.0                 !
 ! R3    R(1,4)                  1.0948         -DE/DX =    0.0                 !
 ! R4    R(1,5)                  1.0948         -DE/DX =    0.0                 !
 ! A1    A(2,1,3)              109.4712         -DE/DX =    0.0                 !
 ! A2    A(2,1,4)              109.4712         -DE/DX =    0.0                 !
 ! A3    A(2,1,5)              109.4712         -DE/DX =    0.0                 !
 ! A4    A(3,1,4)              109.4712         -DE/DX =    0.0                 !
 ! A5    A(3,1,5)              109.4712         -DE/DX =    0.0                 !
 ! A6    A(4,1,5)              109.4712         -DE/DX =    0.0                 !
 ! D1    D(2,1,4,3)           -120.0            -DE/DX =    0.0                 !
 ! D2    D(2,1,5,3)            120.0            -DE/DX =    0.0                 !
 ! D3    D(2,1,5,4)           -120.0            -DE/DX =    0.0                 !
 ! D4    D(3,1,5,4)            120.0            -DE/DX =    0.0                 !
 --------------------------------------------------------------------------------
 GradGradGradGradGradGradGradGradGradGradGradGradGradGradGradGradGradGrad

 Leave Link  103 at Mon Apr 10 14:29:21 2017, MaxMem=  2013265920 cpu:        20.3
 (Enter /public/apps/gaussian//g09/l9999.exe)
 1\1\GINC-N20\Freq\RB3LYP\Gen\C1H4\KCHRBNNT\10-Apr-2017\0\\#P Geom=AllC
 heck Guess=TCheck SCRF=Check GenChk RB3LYP/ChkBas Freq\\methane.car\\0
 ,1\C,0.1685527223,0.3365527107,-0.0004473123\H,1.2633684021,0.33655193
 07,-0.0004474791\H,-0.1963851023,1.3687550925,-0.0004477708\H,-0.19638
 63415,-0.1795485354,-0.894360259\H,-0.1963860692,-0.179547645,0.893466
 2597\\Version=ES64L-G09RevD.01\State=1-A1\HF=-40.5168697\RMSD=0.000e+0
 0\RMSF=5.153e-06\ZeroPoint=0.0450841\Thermal=0.0479496\Dipole=0.,0.,0.
 \DipoleDeriv=0.0003713,0.,0.,0.,0.0003713,0.,0.,0.,0.0003713,-0.141220
 9,0.0000002,0.,0.0000002,0.0704712,0.,0.,0.,0.0704712,0.0469499,0.0665
 283,0.,0.0665283,-0.1176997,0.,0.,0.,0.0704712,0.0469498,-0.0332643,-0
 .0576154,-0.0332643,0.0234285,-0.0814803,-0.0576154,-0.0814803,-0.0706
 568,0.0469498,-0.0332642,0.0576153,-0.0332642,0.0234286,0.0814802,0.05
 76153,0.0814802,-0.070657\Polar=12.5254873,0.,12.5254873,0.,0.,12.5254
 873\PG=TD [O(C1),4C3(H1)]\NImag=0\\0.55789537,0.,0.55789537,0.,0.,0.55
 789537,-0.32306323,0.00000020,0.00000004,0.34772782,0.00000020,-0.0476
 7915,0.,-0.00000021,0.04628602,0.00000004,0.,-0.04767915,-0.00000005,0
 .,0.04628602,-0.07827726,0.08654471,-0.00000004,-0.00822151,0.03229979
 ,-0.00000002,0.07977942,0.08654471,-0.29246512,0.00000011,-0.00083569,
 0.00290268,0.,-0.09473385,0.31423442,-0.00000004,0.00000011,-0.0476791
 5,0.,0.,-0.00197394,0.00000004,-0.00000012,0.04628602,-0.07827747,-0.0
 4327251,-0.07495013,-0.00822155,-0.01614990,-0.02797242,0.00335968,0.0
 0451242,0.01131500,0.07977964,-0.04327251,-0.10887566,-0.10599538,0.00
 041786,-0.00075477,0.00211167,-0.01205533,-0.01233600,-0.02566878,0.04
 736709,0.11327313,-0.07495013,-0.10599538,-0.23126841,0.00072374,0.002
 11165,0.00168354,0.00174964,0.00138624,0.00168355,0.08204215,0.1160250
 0,0.24724708,-0.07827742,-0.04327240,0.07495013,-0.00822154,-0.0161498
 7,0.02797244,0.00335967,0.00451241,-0.01131501,0.00335969,0.00754289,-
 0.00956541,0.07977959,-0.04327240,-0.10887545,0.10599527,0.00041786,-0
 .00075477,-0.00211167,-0.01205532,-0.01233598,0.02566879,0.00754289,0.
 00869330,-0.01352751,0.04736697,0.11327290,0.07495013,0.10599527,-0.23
 126866,-0.00072374,-0.00211165,0.00168354,-0.00174963,-0.00138622,0.00
 168353,0.00956539,0.01352748,-0.01934576,-0.08204215,-0.11602489,0.247
 24736\\0.,0.,0.,-0.00000998,0.,0.,0.00000333,-0.00000941,0.,0.00000333
 ,0.00000470,0.00000815,0.00000333,0.00000470,-0.00000815\\\@


 A COMPLEXITY IS MERELY A DISARRANGEMENT OF SIMPLICITIES.

                                    -- G. O. ABELL IN "EXPLORATION OF THE UNIVERSE"
 Job cpu time:       0 days  0 hours  3 minutes  4.5 seconds.
 File lengths (MBytes):  RWF=      5 Int=      0 D2E=      0 Chk=      1 Scr=      1
 Normal termination of Gaussian 09 at Mon Apr 10 14:29:22 2017.
