 Entering Gaussian System, Link 0=g09
 Initial command:
 /public/apps/gaussian//g09/l1.exe "/tmp/296265.pbs/Gau-53092.inp" -scrdir="/tmp/296265.pbs/"
 Entering Link 1 = /public/apps/gaussian//g09/l1.exe PID=     53109.
  
 Copyright (c) 1988,1990,1992,1993,1995,1998,2003,2009,2013,
            Gaussian, Inc.  All Rights Reserved.
  
 This is part of the Gaussian(R) 09 program.  It is based on
 the Gaussian(R) 03 system (copyright 2003, Gaussian, Inc.),
 the Gaussian(R) 98 system (copyright 1998, Gaussian, Inc.),
 the Gaussian(R) 94 system (copyright 1995, Gaussian, Inc.),
 the Gaussian 92(TM) system (copyright 1992, Gaussian, Inc.),
 the Gaussian 90(TM) system (copyright 1990, Gaussian, Inc.),
 the Gaussian 88(TM) system (copyright 1988, Gaussian, Inc.),
 the Gaussian 86(TM) system (copyright 1986, Carnegie Mellon
 University), and the Gaussian 82(TM) system (copyright 1983,
 Carnegie Mellon University). Gaussian is a federally registered
 trademark of Gaussian, Inc.
  
 This software contains proprietary and confidential information,
 including trade secrets, belonging to Gaussian, Inc.
  
 This software is provided under written license and may be
 used, copied, transmitted, or stored only in accord with that
 written license.
  
 The following legend is applicable only to US Government
 contracts under FAR:
  
                    RESTRICTED RIGHTS LEGEND
  
 Use, reproduction and disclosure by the US Government is
 subject to restrictions as set forth in subparagraphs (a)
 and (c) of the Commercial Computer Software - Restricted
 Rights clause in FAR 52.227-19.
  
 Gaussian, Inc.
 340 Quinnipiac St., Bldg. 40, Wallingford CT 06492
  
  
 ---------------------------------------------------------------
 Warning -- This program may not be used in any manner that
 competes with the business of Gaussian, Inc. or will provide
 assistance to any competitor of Gaussian, Inc.  The licensee
 of this program is prohibited from giving any competitor of
 Gaussian, Inc. access to this program.  By using this program,
 the user acknowledges that Gaussian, Inc. is engaged in the
 business of creating and licensing software in the field of
 computational chemistry and represents and warrants to the
 licensee that it is not a competitor of Gaussian, Inc. and that
 it will not use this program in any manner prohibited above.
 ---------------------------------------------------------------
  

 Cite this work as:
 Gaussian 09, Revision D.01,
 M. J. Frisch, G. W. Trucks, H. B. Schlegel, G. E. Scuseria, 
 M. A. Robb, J. R. Cheeseman, G. Scalmani, V. Barone, B. Mennucci, 
 G. A. Petersson, H. Nakatsuji, M. Caricato, X. Li, H. P. Hratchian, 
 A. F. Izmaylov, J. Bloino, G. Zheng, J. L. Sonnenberg, M. Hada, 
 M. Ehara, K. Toyota, R. Fukuda, J. Hasegawa, M. Ishida, T. Nakajima, 
 Y. Honda, O. Kitao, H. Nakai, T. Vreven, J. A. Montgomery, Jr., 
 J. E. Peralta, F. Ogliaro, M. Bearpark, J. J. Heyd, E. Brothers, 
 K. N. Kudin, V. N. Staroverov, T. Keith, R. Kobayashi, J. Normand, 
 K. Raghavachari, A. Rendell, J. C. Burant, S. S. Iyengar, J. Tomasi, 
 M. Cossi, N. Rega, J. M. Millam, M. Klene, J. E. Knox, J. B. Cross, 
 V. Bakken, C. Adamo, J. Jaramillo, R. Gomperts, R. E. Stratmann, 
 O. Yazyev, A. J. Austin, R. Cammi, C. Pomelli, J. W. Ochterski, 
 R. L. Martin, K. Morokuma, V. G. Zakrzewski, G. A. Voth, 
 P. Salvador, J. J. Dannenberg, S. Dapprich, A. D. Daniels, 
 O. Farkas, J. B. Foresman, J. V. Ortiz, J. Cioslowski, 
 and D. J. Fox, Gaussian, Inc., Wallingford CT, 2013.
 
 ******************************************
 Gaussian 09:  ES64L-G09RevD.01 24-Apr-2013
                26-Jan-2016 
 ******************************************
 %chk=1.chk
 %mem=15GB
 %nproc=8
 Will use up to    8 processors via shared memory.
 ----------------------------------------------------------------------
 #P b3lyp/gen opt freq scrf(smd,solvent=water) gfinput scf=(xqc,maxcon=
 128,maxcyc=128)
 ----------------------------------------------------------------------
 1/14=-1,18=20,19=15,26=3,38=1/1,3;
 2/9=110,12=2,17=6,18=5,40=1/2;
 3/5=7,11=2,16=1,24=10,25=1,30=1,70=32201,71=1,72=1,74=-5/1,2,3;
 4//1;
 5/5=2,7=128,8=3,13=1,38=5,53=1,85=128/2,8;
 6/7=2,8=2,9=2,10=2,28=1/1;
 7//1,2,3,16;
 1/14=-1,18=20,19=15,26=3/3(2);
 2/9=110/2;
 99//99;
 2/9=110/2;
 3/5=7,6=1,11=2,16=1,25=1,30=1,70=32205,71=1,72=1,74=-5,82=7/1,2,3;
 4/5=5,16=3,69=1/1;
 5/5=2,7=128,8=3,13=1,38=5,53=1,85=128/2,8;
 7//1,2,3,16;
 1/14=-1,18=20,19=15,26=3/3(-5);
 2/9=110/2;
 6/7=2,8=2,9=2,10=2,19=2,28=1/1;
 99/9=1/99;
 Leave Link    1 at Tue Jan 26 12:15:02 2016, MaxMem=  2013265920 cpu:         1.1
 (Enter /public/apps/gaussian//g09/l101.exe)
 --------------------
 cyclohexane-boat.car
 --------------------
 Symbolic Z-matrix:
 Charge =  0 Multiplicity = 1
 6                    -0.27731   1.33002   0.442 
 6                    -1.4218    0.49359  -0.15496 
 6                    -1.06689  -1.02082  -0.2582 
 6                     0.28772  -1.35126   0.39933 
 6                     1.43602  -0.47057  -0.13728 
 6                     1.04137   1.02805  -0.28355 
 1                    -0.52001   2.39898   0.37426 
 1                    -0.1676    1.10628   1.51399 
 1                    -2.33202   0.63882   0.44246 
 1                    -1.65151   0.8866   -1.15578 
 1                    -1.85187  -1.62632   0.21284 
 1                    -1.03204  -1.32559  -1.31241 
 1                     0.20438  -1.23514   1.48719 
 1                     0.53559  -2.40682   0.21913 
 1                     2.29849  -0.57669   0.53499 
 1                     1.7645   -0.86689  -1.10738 
 1                     0.91512   1.27625  -1.34708 
 1                     1.84229   1.67653   0.09372 
 
 NAtoms=     18 NQM=       18 NQMF=       0 NMMI=      0 NMMIF=      0
                NMic=       0 NMicF=      0.
                    Isotopes and Nuclear Properties:
 (Nuclear quadrupole moments (NQMom) in fm**2, nuclear magnetic moments (NMagM)
  in nuclear magnetons)

  Atom         1           2           3           4           5           6           7           8           9          10
 IAtWgt=          12          12          12          12          12          12           1           1           1           1
 AtmWgt=  12.0000000  12.0000000  12.0000000  12.0000000  12.0000000  12.0000000   1.0078250   1.0078250   1.0078250   1.0078250
 NucSpn=           0           0           0           0           0           0           1           1           1           1
 AtZEff=   0.0000000   0.0000000   0.0000000   0.0000000   0.0000000   0.0000000   0.0000000   0.0000000   0.0000000   0.0000000
 NQMom=    0.0000000   0.0000000   0.0000000   0.0000000   0.0000000   0.0000000   0.0000000   0.0000000   0.0000000   0.0000000
 NMagM=    0.0000000   0.0000000   0.0000000   0.0000000   0.0000000   0.0000000   2.7928460   2.7928460   2.7928460   2.7928460
 AtZNuc=   6.0000000   6.0000000   6.0000000   6.0000000   6.0000000   6.0000000   1.0000000   1.0000000   1.0000000   1.0000000

  Atom        11          12          13          14          15          16          17          18
 IAtWgt=           1           1           1           1           1           1           1           1
 AtmWgt=   1.0078250   1.0078250   1.0078250   1.0078250   1.0078250   1.0078250   1.0078250   1.0078250
 NucSpn=           1           1           1           1           1           1           1           1
 AtZEff=   0.0000000   0.0000000   0.0000000   0.0000000   0.0000000   0.0000000   0.0000000   0.0000000
 NQMom=    0.0000000   0.0000000   0.0000000   0.0000000   0.0000000   0.0000000   0.0000000   0.0000000
 NMagM=    2.7928460   2.7928460   2.7928460   2.7928460   2.7928460   2.7928460   2.7928460   2.7928460
 AtZNuc=   1.0000000   1.0000000   1.0000000   1.0000000   1.0000000   1.0000000   1.0000000   1.0000000
 Leave Link  101 at Tue Jan 26 12:15:02 2016, MaxMem=  2013265920 cpu:         2.0
 (Enter /public/apps/gaussian//g09/l103.exe)

 GradGradGradGradGradGradGradGradGradGradGradGradGradGradGradGradGradGrad
 Berny optimization.
 Initialization pass.
                           ----------------------------
                           !    Initial Parameters    !
                           ! (Angstroms and Degrees)  !
 --------------------------                            --------------------------
 ! Name  Definition              Value          Derivative Info.                !
 --------------------------------------------------------------------------------
 ! R1    R(1,2)                  1.5381         estimate D2E/DX2                !
 ! R2    R(1,6)                  1.5351         estimate D2E/DX2                !
 ! R3    R(1,7)                  1.0983         estimate D2E/DX2                !
 ! R4    R(1,8)                  1.1006         estimate D2E/DX2                !
 ! R5    R(2,3)                  1.5589         estimate D2E/DX2                !
 ! R6    R(2,9)                  1.0984         estimate D2E/DX2                !
 ! R7    R(2,10)                 1.0995         estimate D2E/DX2                !
 ! R8    R(3,4)                  1.5416         estimate D2E/DX2                !
 ! R9    R(3,11)                 1.0976         estimate D2E/DX2                !
 ! R10   R(3,12)                 1.0979         estimate D2E/DX2                !
 ! R11   R(4,5)                  1.5434         estimate D2E/DX2                !
 ! R12   R(4,13)                 1.0972         estimate D2E/DX2                !
 ! R13   R(4,14)                 1.0991         estimate D2E/DX2                !
 ! R14   R(5,6)                  1.5566         estimate D2E/DX2                !
 ! R15   R(5,15)                 1.0987         estimate D2E/DX2                !
 ! R16   R(5,16)                 1.0982         estimate D2E/DX2                !
 ! R17   R(6,17)                 1.0994         estimate D2E/DX2                !
 ! R18   R(6,18)                 1.0974         estimate D2E/DX2                !
 ! A1    A(2,1,6)              110.4121         estimate D2E/DX2                !
 ! A2    A(2,1,7)              109.9331         estimate D2E/DX2                !
 ! A3    A(2,1,8)              109.9781         estimate D2E/DX2                !
 ! A4    A(6,1,7)              110.6184         estimate D2E/DX2                !
 ! A5    A(6,1,8)              109.5567         estimate D2E/DX2                !
 ! A6    A(7,1,8)              106.2589         estimate D2E/DX2                !
 ! A7    A(1,2,3)              112.6182         estimate D2E/DX2                !
 ! A8    A(1,2,9)              109.4875         estimate D2E/DX2                !
 ! A9    A(1,2,10)             108.3223         estimate D2E/DX2                !
 ! A10   A(3,2,9)              110.6795         estimate D2E/DX2                !
 ! A11   A(3,2,10)             109.5445         estimate D2E/DX2                !
 ! A12   A(9,2,10)             105.9435         estimate D2E/DX2                !
 ! A13   A(2,3,4)              112.3369         estimate D2E/DX2                !
 ! A14   A(2,3,11)             110.1625         estimate D2E/DX2                !
 ! A15   A(2,3,12)             109.9065         estimate D2E/DX2                !
 ! A16   A(4,3,11)             109.0952         estimate D2E/DX2                !
 ! A17   A(4,3,12)             108.7931         estimate D2E/DX2                !
 ! A18   A(11,3,12)            106.3575         estimate D2E/DX2                !
 ! A19   A(3,4,5)              112.5288         estimate D2E/DX2                !
 ! A20   A(3,4,13)             109.4792         estimate D2E/DX2                !
 ! A21   A(3,4,14)             109.5169         estimate D2E/DX2                !
 ! A22   A(5,4,13)             109.9276         estimate D2E/DX2                !
 ! A23   A(5,4,14)             108.8566         estimate D2E/DX2                !
 ! A24   A(13,4,14)            106.3389         estimate D2E/DX2                !
 ! A25   A(4,5,6)              113.1661         estimate D2E/DX2                !
 ! A26   A(4,5,15)             108.4327         estimate D2E/DX2                !
 ! A27   A(4,5,16)             108.889          estimate D2E/DX2                !
 ! A28   A(6,5,15)             110.4577         estimate D2E/DX2                !
 ! A29   A(6,5,16)             109.8925         estimate D2E/DX2                !
 ! A30   A(15,5,16)            105.7157         estimate D2E/DX2                !
 ! A31   A(1,6,5)              111.2697         estimate D2E/DX2                !
 ! A32   A(1,6,17)             108.3104         estimate D2E/DX2                !
 ! A33   A(1,6,18)             110.3776         estimate D2E/DX2                !
 ! A34   A(5,6,17)             109.7173         estimate D2E/DX2                !
 ! A35   A(5,6,18)             110.5832         estimate D2E/DX2                !
 ! A36   A(17,6,18)            106.4377         estimate D2E/DX2                !
 ! D1    D(6,1,2,3)             50.3432         estimate D2E/DX2                !
 ! D2    D(6,1,2,9)            173.9333         estimate D2E/DX2                !
 ! D3    D(6,1,2,10)           -70.9713         estimate D2E/DX2                !
 ! D4    D(7,1,2,3)            172.6623         estimate D2E/DX2                !
 ! D5    D(7,1,2,9)            -63.7476         estimate D2E/DX2                !
 ! D6    D(7,1,2,10)            51.3478         estimate D2E/DX2                !
 ! D7    D(8,1,2,3)            -70.6758         estimate D2E/DX2                !
 ! D8    D(8,1,2,9)             52.9143         estimate D2E/DX2                !
 ! D9    D(8,1,2,10)           168.0097         estimate D2E/DX2                !
 ! D10   D(2,1,6,5)            -60.8853         estimate D2E/DX2                !
 ! D11   D(2,1,6,17)            59.7897         estimate D2E/DX2                !
 ! D12   D(2,1,6,18)           175.95           estimate D2E/DX2                !
 ! D13   D(7,1,6,5)            177.1989         estimate D2E/DX2                !
 ! D14   D(7,1,6,17)           -62.126          estimate D2E/DX2                !
 ! D15   D(7,1,6,18)            54.0342         estimate D2E/DX2                !
 ! D16   D(8,1,6,5)             60.3843         estimate D2E/DX2                !
 ! D17   D(8,1,6,17)          -178.9407         estimate D2E/DX2                !
 ! D18   D(8,1,6,18)           -62.7805         estimate D2E/DX2                !
 ! D19   D(1,2,3,4)              6.1161         estimate D2E/DX2                !
 ! D20   D(1,2,3,11)           127.9619         estimate D2E/DX2                !
 ! D21   D(1,2,3,12)          -115.1631         estimate D2E/DX2                !
 ! D22   D(9,2,3,4)           -116.8095         estimate D2E/DX2                !
 ! D23   D(9,2,3,11)             5.0363         estimate D2E/DX2                !
 ! D24   D(9,2,3,12)           121.9114         estimate D2E/DX2                !
 ! D25   D(10,2,3,4)           126.7318         estimate D2E/DX2                !
 ! D26   D(10,2,3,11)         -111.4224         estimate D2E/DX2                !
 ! D27   D(10,2,3,12)            5.4527         estimate D2E/DX2                !
 ! D28   D(2,3,4,5)            -53.5556         estimate D2E/DX2                !
 ! D29   D(2,3,4,13)            68.9998         estimate D2E/DX2                !
 ! D30   D(2,3,4,14)          -174.7712         estimate D2E/DX2                !
 ! D31   D(11,3,4,5)          -176.0071         estimate D2E/DX2                !
 ! D32   D(11,3,4,13)          -53.4517         estimate D2E/DX2                !
 ! D33   D(11,3,4,14)           62.7773         estimate D2E/DX2                !
 ! D34   D(12,3,4,5)            68.3592         estimate D2E/DX2                !
 ! D35   D(12,3,4,13)         -169.0855         estimate D2E/DX2                !
 ! D36   D(12,3,4,14)          -52.8564         estimate D2E/DX2                !
 ! D37   D(3,4,5,6)             43.1098         estimate D2E/DX2                !
 ! D38   D(3,4,5,15)           166.0214         estimate D2E/DX2                !
 ! D39   D(3,4,5,16)           -79.4088         estimate D2E/DX2                !
 ! D40   D(13,4,5,6)           -79.1928         estimate D2E/DX2                !
 ! D41   D(13,4,5,15)           43.7187         estimate D2E/DX2                !
 ! D42   D(13,4,5,16)          158.2886         estimate D2E/DX2                !
 ! D43   D(14,4,5,6)           164.7018         estimate D2E/DX2                !
 ! D44   D(14,4,5,15)          -72.3867         estimate D2E/DX2                !
 ! D45   D(14,4,5,16)           42.1831         estimate D2E/DX2                !
 ! D46   D(4,5,6,1)             13.2617         estimate D2E/DX2                !
 ! D47   D(4,5,6,17)          -106.5823         estimate D2E/DX2                !
 ! D48   D(4,5,6,18)           136.3087         estimate D2E/DX2                !
 ! D49   D(15,5,6,1)          -108.5209         estimate D2E/DX2                !
 ! D50   D(15,5,6,17)          131.6351         estimate D2E/DX2                !
 ! D51   D(15,5,6,18)           14.526          estimate D2E/DX2                !
 ! D52   D(16,5,6,1)           135.2203         estimate D2E/DX2                !
 ! D53   D(16,5,6,17)           15.3763         estimate D2E/DX2                !
 ! D54   D(16,5,6,18)         -101.7327         estimate D2E/DX2                !
 --------------------------------------------------------------------------------
 Trust Radius=3.00D-01 FncErr=1.00D-07 GrdErr=1.00D-06
 Number of steps in this run=    108 maximum allowed number of steps=    108.
 GradGradGradGradGradGradGradGradGradGradGradGradGradGradGradGradGradGrad

 Leave Link  103 at Tue Jan 26 12:15:03 2016, MaxMem=  2013265920 cpu:         0.1
 (Enter /public/apps/gaussian//g09/l202.exe)
                          Input orientation:                          
 ---------------------------------------------------------------------
 Center     Atomic      Atomic             Coordinates (Angstroms)
 Number     Number       Type             X           Y           Z
 ---------------------------------------------------------------------
      1          6           0       -0.277314    1.330019    0.442002
      2          6           0       -1.421798    0.493588   -0.154960
      3          6           0       -1.066887   -1.020817   -0.258200
      4          6           0        0.287719   -1.351264    0.399333
      5          6           0        1.436021   -0.470573   -0.137279
      6          6           0        1.041374    1.028046   -0.283552
      7          1           0       -0.520013    2.398975    0.374259
      8          1           0       -0.167597    1.106285    1.513990
      9          1           0       -2.332018    0.638824    0.442458
     10          1           0       -1.651512    0.886597   -1.155777
     11          1           0       -1.851871   -1.626324    0.212839
     12          1           0       -1.032039   -1.325586   -1.312405
     13          1           0        0.204380   -1.235140    1.487194
     14          1           0        0.535589   -2.406824    0.219131
     15          1           0        2.298485   -0.576689    0.534992
     16          1           0        1.764502   -0.866887   -1.107380
     17          1           0        0.915120    1.276252   -1.347084
     18          1           0        1.842292    1.676527    0.093719
 ---------------------------------------------------------------------
                    Distance matrix (angstroms):
                    1          2          3          4          5
     1  C    0.000000
     2  C    1.538124   0.000000
     3  C    2.576847   1.558859   0.000000
     4  C    2.740504   2.575494   1.541591   0.000000
     5  C    2.552100   3.016131   2.565529   1.543427   0.000000
     6  C    1.535107   2.523767   2.939940   2.587556   1.556599
     7  H    1.098253   2.173428   3.520519   3.836320   3.510277
     8  H    1.100569   2.175732   2.911004   2.736662   2.790118
     9  H    2.167847   1.098409   2.201337   3.290187   3.970513
    10  H    2.153588   1.099481   2.187615   3.344698   3.523082
    11  H    3.357337   2.194144   1.097596   2.165244   3.502653
    12  H    3.271054   2.191115   1.097928   2.161589   2.864138
    13  H    2.811494   2.886109   2.169897   1.097211   2.177249
    14  H    3.830728   3.519048   2.171817   1.099145   2.164919
    15  H    3.206076   3.932179   3.485991   2.159062   1.098660
    16  H    3.375795   3.593119   2.959994   2.164646   1.098208
    17  H    2.150725   2.737683   3.223437   3.216744   2.187776
    18  H    2.175798   3.480728   3.982817   3.417253   2.197374
                    6          7          8          9         10
     6  C    0.000000
     7  H    2.179470   0.000000
     8  H    2.167692   1.759043   0.000000
     9  H    3.472515   2.527082   2.459963   0.000000
    10  H    2.834152   2.430759   3.062339   1.754661   0.000000
    11  H    3.957645   4.242986   3.463658   2.326835   2.868453
    12  H    3.301085   4.120602   3.827501   2.937413   2.302614
    13  H    2.993010   3.869129   2.370940   3.322127   3.864117
    14  H    3.508111   4.922811   3.809602   4.189155   4.185738
    15  H    2.196706   4.101749   3.142037   4.788277   4.538985
    16  H    2.189150   4.252072   3.807623   4.631484   3.840078
    17  H    1.099385   2.506618   3.063806   3.762005   2.603081
    18  H    1.097420   2.486186   2.526262   4.315473   3.793665
                   11         12         13         14         15
    11  H    0.000000
    12  H    1.757537   0.000000
    13  H    2.450546   3.061808   0.000000
    14  H    2.511809   2.443795   1.757989   0.000000
    15  H    4.293131   3.881509   2.392806   2.560657   0.000000
    16  H    3.924013   2.841317   3.049821   2.375135   1.751211
    17  H    4.302853   3.249953   3.852969   4.020214   2.981493
    18  H    4.956799   4.387670   3.619714   4.289167   2.340901
                   16         17         18
    16  H    0.000000
    17  H    2.317747   0.000000
    18  H    2.813831   1.759483   0.000000
 Stoichiometry    C6H12
 Framework group  C1[X(C6H12)]
 Deg. of freedom    48
 Full point group                 C1      NOp   1
 Largest Abelian subgroup         C1      NOp   1
 Largest concise Abelian subgroup C1      NOp   1
                         Standard orientation:                         
 ---------------------------------------------------------------------
 Center     Atomic      Atomic             Coordinates (Angstroms)
 Number     Number       Type             X           Y           Z
 ---------------------------------------------------------------------
      1          6           0        0.277316   -1.330019    0.442002
      2          6           0        1.421799   -0.493586   -0.154960
      3          6           0        1.066886    1.020818   -0.258200
      4          6           0       -0.287721    1.351264    0.399333
      5          6           0       -1.436021    0.470571   -0.137279
      6          6           0       -1.041373   -1.028047   -0.283552
      7          1           0        0.520016   -2.398974    0.374259
      8          1           0        0.167599   -1.106285    1.513990
      9          1           0        2.332019   -0.638821    0.442458
     10          1           0        1.651513   -0.886595   -1.155777
     11          1           0        1.851869    1.626326    0.212839
     12          1           0        1.032037    1.325587   -1.312405
     13          1           0       -0.204381    1.235140    1.487194
     14          1           0       -0.535592    2.406823    0.219131
     15          1           0       -2.298486    0.576686    0.534992
     16          1           0       -1.764503    0.866885   -1.107380
     17          1           0       -0.915118   -1.276253   -1.347084
     18          1           0       -1.842290   -1.676529    0.093719
 ---------------------------------------------------------------------
 Rotational constants (GHZ):      4.3021791      4.1537224      2.4866904
 Leave Link  202 at Tue Jan 26 12:15:03 2016, MaxMem=  2013265920 cpu:         0.1
 (Enter /public/apps/gaussian//g09/l301.exe)
 General basis read from cards:  (5D, 7F)
 Centers:       1      2      3      4      5      6
 6-31G(d')
 ****
 Centers:       7      8      9     10     11     12     13     14     15     16
 Centers:      17     18
 6-31G(d')
 ****
 Ernie: Thresh=  0.10000D-02 Tol=  0.10000D-05 Strict=F.
 AO basis set in the form of general basis input (Overlap normalization):
      1 0
 S   6 1.00       0.000000000000
      0.3047524880D+04  0.1834737132D-02
      0.4573695180D+03  0.1403732281D-01
      0.1039486850D+03  0.6884262226D-01
      0.2921015530D+02  0.2321844432D+00
      0.9286662960D+01  0.4679413484D+00
      0.3163926960D+01  0.3623119853D+00
 SP   3 1.00       0.000000000000
      0.7868272350D+01 -0.1193324198D+00  0.6899906659D-01
      0.1881288540D+01 -0.1608541517D+00  0.3164239610D+00
      0.5442492580D+00  0.1143456438D+01  0.7443082909D+00
 SP   1 1.00       0.000000000000
      0.1687144782D+00  0.1000000000D+01  0.1000000000D+01
 D   1 1.00       0.000000000000
      0.6260000000D+00  0.1000000000D+01
 ****
      2 0
 S   6 1.00       0.000000000000
      0.3047524880D+04  0.1834737132D-02
      0.4573695180D+03  0.1403732281D-01
      0.1039486850D+03  0.6884262226D-01
      0.2921015530D+02  0.2321844432D+00
      0.9286662960D+01  0.4679413484D+00
      0.3163926960D+01  0.3623119853D+00
 SP   3 1.00       0.000000000000
      0.7868272350D+01 -0.1193324198D+00  0.6899906659D-01
      0.1881288540D+01 -0.1608541517D+00  0.3164239610D+00
      0.5442492580D+00  0.1143456438D+01  0.7443082909D+00
 SP   1 1.00       0.000000000000
      0.1687144782D+00  0.1000000000D+01  0.1000000000D+01
 D   1 1.00       0.000000000000
      0.6260000000D+00  0.1000000000D+01
 ****
      3 0
 S   6 1.00       0.000000000000
      0.3047524880D+04  0.1834737132D-02
      0.4573695180D+03  0.1403732281D-01
      0.1039486850D+03  0.6884262226D-01
      0.2921015530D+02  0.2321844432D+00
      0.9286662960D+01  0.4679413484D+00
      0.3163926960D+01  0.3623119853D+00
 SP   3 1.00       0.000000000000
      0.7868272350D+01 -0.1193324198D+00  0.6899906659D-01
      0.1881288540D+01 -0.1608541517D+00  0.3164239610D+00
      0.5442492580D+00  0.1143456438D+01  0.7443082909D+00
 SP   1 1.00       0.000000000000
      0.1687144782D+00  0.1000000000D+01  0.1000000000D+01
 D   1 1.00       0.000000000000
      0.6260000000D+00  0.1000000000D+01
 ****
      4 0
 S   6 1.00       0.000000000000
      0.3047524880D+04  0.1834737132D-02
      0.4573695180D+03  0.1403732281D-01
      0.1039486850D+03  0.6884262226D-01
      0.2921015530D+02  0.2321844432D+00
      0.9286662960D+01  0.4679413484D+00
      0.3163926960D+01  0.3623119853D+00
 SP   3 1.00       0.000000000000
      0.7868272350D+01 -0.1193324198D+00  0.6899906659D-01
      0.1881288540D+01 -0.1608541517D+00  0.3164239610D+00
      0.5442492580D+00  0.1143456438D+01  0.7443082909D+00
 SP   1 1.00       0.000000000000
      0.1687144782D+00  0.1000000000D+01  0.1000000000D+01
 D   1 1.00       0.000000000000
      0.6260000000D+00  0.1000000000D+01
 ****
      5 0
 S   6 1.00       0.000000000000
      0.3047524880D+04  0.1834737132D-02
      0.4573695180D+03  0.1403732281D-01
      0.1039486850D+03  0.6884262226D-01
      0.2921015530D+02  0.2321844432D+00
      0.9286662960D+01  0.4679413484D+00
      0.3163926960D+01  0.3623119853D+00
 SP   3 1.00       0.000000000000
      0.7868272350D+01 -0.1193324198D+00  0.6899906659D-01
      0.1881288540D+01 -0.1608541517D+00  0.3164239610D+00
      0.5442492580D+00  0.1143456438D+01  0.7443082909D+00
 SP   1 1.00       0.000000000000
      0.1687144782D+00  0.1000000000D+01  0.1000000000D+01
 D   1 1.00       0.000000000000
      0.6260000000D+00  0.1000000000D+01
 ****
      6 0
 S   6 1.00       0.000000000000
      0.3047524880D+04  0.1834737132D-02
      0.4573695180D+03  0.1403732281D-01
      0.1039486850D+03  0.6884262226D-01
      0.2921015530D+02  0.2321844432D+00
      0.9286662960D+01  0.4679413484D+00
      0.3163926960D+01  0.3623119853D+00
 SP   3 1.00       0.000000000000
      0.7868272350D+01 -0.1193324198D+00  0.6899906659D-01
      0.1881288540D+01 -0.1608541517D+00  0.3164239610D+00
      0.5442492580D+00  0.1143456438D+01  0.7443082909D+00
 SP   1 1.00       0.000000000000
      0.1687144782D+00  0.1000000000D+01  0.1000000000D+01
 D   1 1.00       0.000000000000
      0.6260000000D+00  0.1000000000D+01
 ****
      7 0
 S   3 1.00       0.000000000000
      0.1873113696D+02  0.3349460434D-01
      0.2825394365D+01  0.2347269535D+00
      0.6401216923D+00  0.8137573261D+00
 S   1 1.00       0.000000000000
      0.1612777588D+00  0.1000000000D+01
 ****
      8 0
 S   3 1.00       0.000000000000
      0.1873113696D+02  0.3349460434D-01
      0.2825394365D+01  0.2347269535D+00
      0.6401216923D+00  0.8137573261D+00
 S   1 1.00       0.000000000000
      0.1612777588D+00  0.1000000000D+01
 ****
      9 0
 S   3 1.00       0.000000000000
      0.1873113696D+02  0.3349460434D-01
      0.2825394365D+01  0.2347269535D+00
      0.6401216923D+00  0.8137573261D+00
 S   1 1.00       0.000000000000
      0.1612777588D+00  0.1000000000D+01
 ****
     10 0
 S   3 1.00       0.000000000000
      0.1873113696D+02  0.3349460434D-01
      0.2825394365D+01  0.2347269535D+00
      0.6401216923D+00  0.8137573261D+00
 S   1 1.00       0.000000000000
      0.1612777588D+00  0.1000000000D+01
 ****
     11 0
 S   3 1.00       0.000000000000
      0.1873113696D+02  0.3349460434D-01
      0.2825394365D+01  0.2347269535D+00
      0.6401216923D+00  0.8137573261D+00
 S   1 1.00       0.000000000000
      0.1612777588D+00  0.1000000000D+01
 ****
     12 0
 S   3 1.00       0.000000000000
      0.1873113696D+02  0.3349460434D-01
      0.2825394365D+01  0.2347269535D+00
      0.6401216923D+00  0.8137573261D+00
 S   1 1.00       0.000000000000
      0.1612777588D+00  0.1000000000D+01
 ****
     13 0
 S   3 1.00       0.000000000000
      0.1873113696D+02  0.3349460434D-01
      0.2825394365D+01  0.2347269535D+00
      0.6401216923D+00  0.8137573261D+00
 S   1 1.00       0.000000000000
      0.1612777588D+00  0.1000000000D+01
 ****
     14 0
 S   3 1.00       0.000000000000
      0.1873113696D+02  0.3349460434D-01
      0.2825394365D+01  0.2347269535D+00
      0.6401216923D+00  0.8137573261D+00
 S   1 1.00       0.000000000000
      0.1612777588D+00  0.1000000000D+01
 ****
     15 0
 S   3 1.00       0.000000000000
      0.1873113696D+02  0.3349460434D-01
      0.2825394365D+01  0.2347269535D+00
      0.6401216923D+00  0.8137573261D+00
 S   1 1.00       0.000000000000
      0.1612777588D+00  0.1000000000D+01
 ****
     16 0
 S   3 1.00       0.000000000000
      0.1873113696D+02  0.3349460434D-01
      0.2825394365D+01  0.2347269535D+00
      0.6401216923D+00  0.8137573261D+00
 S   1 1.00       0.000000000000
      0.1612777588D+00  0.1000000000D+01
 ****
     17 0
 S   3 1.00       0.000000000000
      0.1873113696D+02  0.3349460434D-01
      0.2825394365D+01  0.2347269535D+00
      0.6401216923D+00  0.8137573261D+00
 S   1 1.00       0.000000000000
      0.1612777588D+00  0.1000000000D+01
 ****
     18 0
 S   3 1.00       0.000000000000
      0.1873113696D+02  0.3349460434D-01
      0.2825394365D+01  0.2347269535D+00
      0.6401216923D+00  0.8137573261D+00
 S   1 1.00       0.000000000000
      0.1612777588D+00  0.1000000000D+01
 ****

 There are   114 symmetry adapted cartesian basis functions of A   symmetry.
 There are   108 symmetry adapted basis functions of A   symmetry.
   108 basis functions,   216 primitive gaussians,   114 cartesian basis functions
    24 alpha electrons       24 beta electrons
       nuclear repulsion energy       254.3560293529 Hartrees.
 IExCor=  402 DFT=T Ex+Corr=B3LYP ExCW=0 ScaHFX=  0.200000
 ScaDFX=  0.800000  0.720000  1.000000  0.810000 ScalE2=  1.000000  1.000000
 IRadAn=      0 IRanWt=     -1 IRanGd=            0 ICorTp=0 IEmpDi=  4
 NAtoms=   18 NActive=   18 NUniq=   18 SFac= 1.00D+00 NAtFMM=   60 NAOKFM=F Big=F
 Integral buffers will be    131072 words long.
 Raffenetti 2 integral format.
 Two-electron integral symmetry is turned on.
 ------------------------------------------------------------------------------
 Polarizable Continuum Model (PCM)
 =================================
 Model                : PCM (using non-symmetric T matrix).
 Atomic radii         : SMD-Coulomb.
 Polarization charges : Total charges.
 Charge compensation  : None.
 Solution method      : On-the-fly selection.
 Cavity type          : VdW (van der Waals Surface) (Alpha=1.000).
 Cavity algorithm     : GePol (No added spheres)
                        Default sphere list used, NSphG=   18.
                        Lebedev-Laikov grids with approx.  5.0 points / Ang**2.
                        Smoothing algorithm: Karplus/York (Gamma=1.0000).
                        Polarization charges: spherical gaussians, with
                                              point-specific exponents (IZeta= 3).
                        Self-potential: point-specific (ISelfS= 7).
                        Self-field    : sphere-specific E.n sum rule (ISelfD= 2).
 1st derivatives      : Analytical E(r).r(x)/FMM algorithm (CHGder, D1EAlg=3).
                        Cavity 1st derivative terms included.
 Solvent              : Water, Eps=  78.355300 Eps(inf)=   1.777849
 ------------------------------------------------------------------------------
 Spheres list:
 ISph  on   Nord     Re0    Alpha      Xe            Ye            Ze
    1   C      1    1.8500  1.000      0.277316     -1.330019      0.442002
    2   C      2    1.8500  1.000      1.421799     -0.493586     -0.154960
    3   C      3    1.8500  1.000      1.066886      1.020818     -0.258200
    4   C      4    1.8500  1.000     -0.287721      1.351264      0.399333
    5   C      5    1.8500  1.000     -1.436021      0.470571     -0.137279
    6   C      6    1.8500  1.000     -1.041373     -1.028047     -0.283552
    7   H      7    1.2000  1.000      0.520016     -2.398974      0.374259
    8   H      8    1.2000  1.000      0.167599     -1.106285      1.513990
    9   H      9    1.2000  1.000      2.332019     -0.638821      0.442458
   10   H     10    1.2000  1.000      1.651513     -0.886595     -1.155777
   11   H     11    1.2000  1.000      1.851869      1.626326      0.212839
   12   H     12    1.2000  1.000      1.032037      1.325587     -1.312405
   13   H     13    1.2000  1.000     -0.204381      1.235140      1.487194
   14   H     14    1.2000  1.000     -0.535592      2.406823      0.219131
   15   H     15    1.2000  1.000     -2.298486      0.576686      0.534992
   16   H     16    1.2000  1.000     -1.764503      0.866885     -1.107380
   17   H     17    1.2000  1.000     -0.915118     -1.276253     -1.347084
   18   H     18    1.2000  1.000     -1.842290     -1.676529      0.093719
 ------------------------------------------------------------------------------
 GePol: Number of generator spheres                  =      18
 GePol: Total number of spheres                      =      18
 GePol: Number of exposed spheres                    =      18 (100.00%)
 GePol: Number of points                             =    1203
 GePol: Average weight of points                     =       0.11
 GePol: Minimum weight of points                     =   0.47D-09
 GePol: Maximum weight of points                     =    0.17992
 GePol: Number of points with low weight             =      84
 GePol: Fraction of low-weight points (<1% of avg)   =       6.98%
 GePol: Cavity surface area                          =    130.960 Ang**2
 GePol: Cavity volume                                =    108.322 Ang**3
 ------------------------------------------------------------------------------
 Atomic radii for non-electrostatic terms: SMD-CDS.
 ------------------------------------------------------------------------------
 PCM non-electrostatic energy =         0.0034594615 Hartrees.
 Nuclear repulsion after PCM non-electrostatic terms =      254.3594888144 Hartrees.
 Leave Link  301 at Tue Jan 26 12:15:03 2016, MaxMem=  2013265920 cpu:         1.1
 (Enter /public/apps/gaussian//g09/l302.exe)
 NPDir=0 NMtPBC=     1 NCelOv=     1 NCel=       1 NClECP=     1 NCelD=      1
         NCelK=      1 NCelE2=     1 NClLst=     1 CellRange=     0.0.
 One-electron integrals computed using PRISM.
 NBasis=   108 RedAO= T EigKep=  2.79D-03  NBF=   108
 NBsUse=   108 1.00D-06 EigRej= -1.00D+00 NBFU=   108
 Precomputing XC quadrature grid using
 IXCGrd= 4 IRadAn=           0 IRanWt=          -1 IRanGd=           0 AccXCQ= 0.00D+00.
 Generated NRdTot=       0 NPtTot=           0 NUsed=           0 NTot=          32
 NSgBfM=   114   114   114   114   114 MxSgAt=    18 MxSgA2=    18.
 Leave Link  302 at Tue Jan 26 12:15:04 2016, MaxMem=  2013265920 cpu:         1.5
 (Enter /public/apps/gaussian//g09/l303.exe)
 DipDrv:  MaxL=1.
 Leave Link  303 at Tue Jan 26 12:15:04 2016, MaxMem=  2013265920 cpu:         0.5
 (Enter /public/apps/gaussian//g09/l401.exe)
 ExpMin= 1.61D-01 ExpMax= 3.05D+03 ExpMxC= 4.57D+02 IAcc=1 IRadAn=         1 AccDes= 0.00D+00
 Harris functional with IExCor=  402 and IRadAn=       1 diagonalized for initial guess.
 HarFok:  IExCor=  402 AccDes= 0.00D+00 IRadAn=         1 IDoV= 1 UseB2=F ITyADJ=14
 ICtDFT=  3500011 ScaDFX=  1.000000  1.000000  1.000000  1.000000
 FoFCou: FMM=F IPFlag=           0 FMFlag=      100000 FMFlg1=           0
         NFxFlg=           0 DoJE=T BraDBF=F KetDBF=T FulRan=T
         wScrn=  0.000000 ICntrl=     500 IOpCl=  0 I1Cent=   200000004 NGrid=           0
         NMat0=    1 NMatS0=      1 NMatT0=    0 NMatD0=    1 NMtDS0=    0 NMtDT0=    0
 Petite list used in FoFCou.
 Harris En= -235.912635240469    
 JPrj=0 DoOrth=F DoCkMO=F.
 Leave Link  401 at Tue Jan 26 12:15:05 2016, MaxMem=  2013265920 cpu:         1.7
 (Enter /public/apps/gaussian//g09/l502.exe)
 Closed shell SCF:
 Using DIIS extrapolation, IDIIS=  1040.
 Integral symmetry usage will be decided dynamically.
 Keep R1 ints in memory in canonical form, NReq=22011868.
 IVT=       59326 IEndB=       59326 NGot=  2013265920 MDV=  1995881154
 LenX=  1995881154 LenY=  1995867717
 Requested convergence on RMS density matrix=1.00D-08 within 128 cycles.
 Requested convergence on MAX density matrix=1.00D-06.
 Requested convergence on             energy=1.00D-06.
 No special actions if energy rises.
 FoFCou: FMM=F IPFlag=           0 FMFlag=           0 FMFlg1=           0
         NFxFlg=           0 DoJE=F BraDBF=F KetDBF=F FulRan=T
         wScrn=  0.000000 ICntrl=     600 IOpCl=  0 I1Cent=           0 NGrid=           0
         NMat0=    1 NMatS0=   5886 NMatT0=    0 NMatD0=    1 NMtDS0=    0 NMtDT0=    0
 Symmetry not used in FoFCou.

 Cycle   1  Pass 1  IDiag  1:
 Inv3:  Mode=1 IEnd=     4341627.
 Iteration    1 A*A^-1 deviation from unit magnitude is 3.77D-15 for   1166.
 Iteration    1 A*A^-1 deviation from orthogonality  is 5.30D-15 for   1183    607.
 Iteration    1 A^-1*A deviation from unit magnitude is 3.77D-15 for   1150.
 Iteration    1 A^-1*A deviation from orthogonality  is 3.58D-11 for   1107   1072.
 E= -235.633270679228    
 DIIS: error= 4.90D-02 at cycle   1 NSaved=   1.
 NSaved= 1 IEnMin= 1 EnMin= -235.633270679228     IErMin= 1 ErrMin= 4.90D-02
 ErrMax= 4.90D-02  0.00D+00 EMaxC= 1.00D-01 BMatC= 1.90D-01 BMatP= 1.90D-01
 IDIUse=3 WtCom= 5.10D-01 WtEn= 4.90D-01
 Coeff-Com:  0.100D+01
 Coeff-En:   0.100D+01
 Coeff:      0.100D+01
 Gap=     0.325 Goal=   None    Shift=    0.000
 GapD=    0.325 DampG=1.000 DampE=0.500 DampFc=0.5000 IDamp=-1.
 Damping current iteration by 5.00D-01
 RMSDP=9.62D-03 MaxDP=1.32D-01              OVMax= 1.69D-01

 Cycle   2  Pass 1  IDiag  1:
 E= -235.732013873117     Delta-E=       -0.098743193888 Rises=F Damp=T
 DIIS: error= 9.18D-03 at cycle   2 NSaved=   2.
 NSaved= 2 IEnMin= 2 EnMin= -235.732013873117     IErMin= 2 ErrMin= 9.18D-03
 ErrMax= 9.18D-03  0.00D+00 EMaxC= 1.00D-01 BMatC= 8.93D-03 BMatP= 1.90D-01
 IDIUse=3 WtCom= 9.08D-01 WtEn= 9.18D-02
 Coeff-Com:  0.855D-01 0.915D+00
 Coeff-En:   0.128D+00 0.872D+00
 Coeff:      0.894D-01 0.911D+00
 Gap=     0.374 Goal=   None    Shift=    0.000
 RMSDP=1.47D-03 MaxDP=1.91D-02 DE=-9.87D-02 OVMax= 9.44D-02

 Cycle   3  Pass 1  IDiag  1:
 E= -235.857671026374     Delta-E=       -0.125657153258 Rises=F Damp=F
 DIIS: error= 4.30D-03 at cycle   3 NSaved=   3.
 NSaved= 3 IEnMin= 3 EnMin= -235.857671026374     IErMin= 3 ErrMin= 4.30D-03
 ErrMax= 4.30D-03  0.00D+00 EMaxC= 1.00D-01 BMatC= 1.47D-03 BMatP= 8.93D-03
 IDIUse=3 WtCom= 9.57D-01 WtEn= 4.30D-02
 Coeff-Com:  0.126D-02 0.265D+00 0.734D+00
 Coeff-En:   0.000D+00 0.000D+00 0.100D+01
 Coeff:      0.121D-02 0.254D+00 0.745D+00
 Gap=     0.369 Goal=   None    Shift=    0.000
 RMSDP=3.73D-04 MaxDP=3.80D-03 DE=-1.26D-01 OVMax= 7.91D-03

 Cycle   4  Pass 1  IDiag  1:
 E= -235.859063786217     Delta-E=       -0.001392759843 Rises=F Damp=F
 DIIS: error= 6.79D-04 at cycle   4 NSaved=   4.
 NSaved= 4 IEnMin= 4 EnMin= -235.859063786217     IErMin= 4 ErrMin= 6.79D-04
 ErrMax= 6.79D-04  0.00D+00 EMaxC= 1.00D-01 BMatC= 3.61D-05 BMatP= 1.47D-03
 IDIUse=3 WtCom= 9.93D-01 WtEn= 6.79D-03
 Coeff-Com: -0.144D-02-0.179D-03 0.134D+00 0.868D+00
 Coeff-En:   0.000D+00 0.000D+00 0.000D+00 0.100D+01
 Coeff:     -0.143D-02-0.178D-03 0.133D+00 0.868D+00
 Gap=     0.369 Goal=   None    Shift=    0.000
 RMSDP=6.10D-05 MaxDP=6.07D-04 DE=-1.39D-03 OVMax= 1.41D-03

 Cycle   5  Pass 1  IDiag  1:
 E= -235.859099203429     Delta-E=       -0.000035417212 Rises=F Damp=F
 DIIS: error= 7.42D-05 at cycle   5 NSaved=   5.
 NSaved= 5 IEnMin= 5 EnMin= -235.859099203429     IErMin= 5 ErrMin= 7.42D-05
 ErrMax= 7.42D-05  0.00D+00 EMaxC= 1.00D-01 BMatC= 9.76D-07 BMatP= 3.61D-05
 IDIUse=1 WtCom= 1.00D+00 WtEn= 0.00D+00
 Coeff-Com: -0.498D-03-0.175D-02 0.451D-01 0.327D+00 0.630D+00
 Coeff:     -0.498D-03-0.175D-02 0.451D-01 0.327D+00 0.630D+00
 Gap=     0.369 Goal=   None    Shift=    0.000
 RMSDP=9.77D-06 MaxDP=2.33D-04 DE=-3.54D-05 OVMax= 2.18D-04

 Cycle   6  Pass 1  IDiag  1:
 E= -235.859100030306     Delta-E=       -0.000000826877 Rises=F Damp=F
 DIIS: error= 3.05D-05 at cycle   6 NSaved=   6.
 NSaved= 6 IEnMin= 6 EnMin= -235.859100030306     IErMin= 6 ErrMin= 3.05D-05
 ErrMax= 3.05D-05  0.00D+00 EMaxC= 1.00D-01 BMatC= 1.43D-07 BMatP= 9.76D-07
 IDIUse=1 WtCom= 1.00D+00 WtEn= 0.00D+00
 Coeff-Com: -0.399D-04-0.907D-03 0.514D-02 0.519D-01 0.296D+00 0.648D+00
 Coeff:     -0.399D-04-0.907D-03 0.514D-02 0.519D-01 0.296D+00 0.648D+00
 Gap=     0.369 Goal=   None    Shift=    0.000
 RMSDP=2.92D-06 MaxDP=7.06D-05 DE=-8.27D-07 OVMax= 6.49D-05

 Cycle   7  Pass 1  IDiag  1:
 E= -235.859100171012     Delta-E=       -0.000000140706 Rises=F Damp=F
 DIIS: error= 2.30D-06 at cycle   7 NSaved=   7.
 NSaved= 7 IEnMin= 7 EnMin= -235.859100171012     IErMin= 7 ErrMin= 2.30D-06
 ErrMax= 2.30D-06  0.00D+00 EMaxC= 1.00D-01 BMatC= 5.19D-10 BMatP= 1.43D-07
 IDIUse=1 WtCom= 1.00D+00 WtEn= 0.00D+00
 Coeff-Com:  0.184D-04-0.900D-04-0.724D-03-0.288D-02 0.224D-01 0.931D-01
 Coeff-Com:  0.888D+00
 Coeff:      0.184D-04-0.900D-04-0.724D-03-0.288D-02 0.224D-01 0.931D-01
 Coeff:      0.888D+00
 Gap=     0.369 Goal=   None    Shift=    0.000
 RMSDP=2.58D-07 MaxDP=2.98D-06 DE=-1.41D-07 OVMax= 5.70D-06

 Cycle   8  Pass 1  IDiag  1:
 E= -235.859100171584     Delta-E=       -0.000000000571 Rises=F Damp=F
 DIIS: error= 2.47D-07 at cycle   8 NSaved=   8.
 NSaved= 8 IEnMin= 8 EnMin= -235.859100171584     IErMin= 8 ErrMin= 2.47D-07
 ErrMax= 2.47D-07  0.00D+00 EMaxC= 1.00D-01 BMatC= 6.99D-12 BMatP= 5.19D-10
 IDIUse=1 WtCom= 1.00D+00 WtEn= 0.00D+00
 Coeff-Com:  0.319D-05-0.378D-05-0.158D-03-0.891D-03 0.637D-03 0.795D-02
 Coeff-Com:  0.135D+00 0.858D+00
 Coeff:      0.319D-05-0.378D-05-0.158D-03-0.891D-03 0.637D-03 0.795D-02
 Coeff:      0.135D+00 0.858D+00
 Gap=     0.369 Goal=   None    Shift=    0.000
 RMSDP=3.80D-08 MaxDP=7.19D-07 DE=-5.71D-10 OVMax= 8.39D-07

 Cycle   9  Pass 1  IDiag  1:
 E= -235.859100171591     Delta-E=       -0.000000000008 Rises=F Damp=F
 DIIS: error= 1.03D-07 at cycle   9 NSaved=   9.
 NSaved= 9 IEnMin= 9 EnMin= -235.859100171591     IErMin= 9 ErrMin= 1.03D-07
 ErrMax= 1.03D-07  0.00D+00 EMaxC= 1.00D-01 BMatC= 3.13D-12 BMatP= 6.99D-12
 IDIUse=1 WtCom= 1.00D+00 WtEn= 0.00D+00
 Coeff-Com:  0.638D-06 0.244D-05-0.441D-04-0.300D-03-0.712D-03-0.352D-03
 Coeff-Com:  0.251D-01 0.421D+00 0.555D+00
 Coeff:      0.638D-06 0.244D-05-0.441D-04-0.300D-03-0.712D-03-0.352D-03
 Coeff:      0.251D-01 0.421D+00 0.555D+00
 Gap=     0.369 Goal=   None    Shift=    0.000
 RMSDP=1.56D-08 MaxDP=3.91D-07 DE=-7.50D-12 OVMax= 3.84D-07

 Cycle  10  Pass 1  IDiag  1:
 E= -235.859100171589     Delta-E=        0.000000000002 Rises=F Damp=F
 DIIS: error= 1.68D-08 at cycle  10 NSaved=  10.
 NSaved=10 IEnMin= 9 EnMin= -235.859100171591     IErMin=10 ErrMin= 1.68D-08
 ErrMax= 1.68D-08  0.00D+00 EMaxC= 1.00D-01 BMatC= 8.04D-14 BMatP= 3.13D-12
 IDIUse=1 WtCom= 1.00D+00 WtEn= 0.00D+00
 Coeff-Com: -0.922D-07 0.112D-05-0.235D-05-0.287D-04-0.279D-03-0.694D-03
 Coeff-Com: -0.215D-02 0.717D-01 0.183D+00 0.748D+00
 Coeff:     -0.922D-07 0.112D-05-0.235D-05-0.287D-04-0.279D-03-0.694D-03
 Coeff:     -0.215D-02 0.717D-01 0.183D+00 0.748D+00
 Gap=     0.369 Goal=   None    Shift=    0.000
 RMSDP=2.77D-09 MaxDP=5.14D-08 DE= 1.59D-12 OVMax= 6.18D-08

 Error on total polarization charges =  0.04239
 SCF Done:  E(RB3LYP) =  -235.859100172     A.U. after   10 cycles
            NFock= 10  Conv=0.28D-08     -V/T= 2.0070
 KE= 2.342186837658D+02 PE=-1.054263369305D+03 EE= 3.298260965535D+02
 SMD-CDS (non-electrostatic) energy       (kcal/mol) =       2.17
 (included in total energy above)
 Leave Link  502 at Tue Jan 26 12:15:12 2016, MaxMem=  2013265920 cpu:        49.0
 (Enter /public/apps/gaussian//g09/l508.exe)
 QCSCF skips out because SCF is already converged.
 Leave Link  508 at Tue Jan 26 12:15:12 2016, MaxMem=  2013265920 cpu:         0.0
 (Enter /public/apps/gaussian//g09/l601.exe)
 Copying SCF densities to generalized density rwf, IOpCl= 0 IROHF=0.

 **********************************************************************

            Population analysis using the SCF density.

 **********************************************************************

 Orbital symmetries:
       Occupied  (A) (A) (A) (A) (A) (A) (A) (A) (A) (A) (A) (A)
                 (A) (A) (A) (A) (A) (A) (A) (A) (A) (A) (A) (A)
       Virtual   (A) (A) (A) (A) (A) (A) (A) (A) (A) (A) (A) (A)
                 (A) (A) (A) (A) (A) (A) (A) (A) (A) (A) (A) (A)
                 (A) (A) (A) (A) (A) (A) (A) (A) (A) (A) (A) (A)
                 (A) (A) (A) (A) (A) (A) (A) (A) (A) (A) (A) (A)
                 (A) (A) (A) (A) (A) (A) (A) (A) (A) (A) (A) (A)
                 (A) (A) (A) (A) (A) (A) (A) (A) (A) (A) (A) (A)
                 (A) (A) (A) (A) (A) (A) (A) (A) (A) (A) (A) (A)
 The electronic state is 1-A.
 Alpha  occ. eigenvalues --  -10.16073 -10.16053 -10.16042 -10.16038 -10.16032
 Alpha  occ. eigenvalues --  -10.16002  -0.80897  -0.72275  -0.71958  -0.60010
 Alpha  occ. eigenvalues --   -0.59412  -0.51110  -0.46751  -0.46175  -0.41901
 Alpha  occ. eigenvalues --   -0.39076  -0.35920  -0.35526  -0.35218  -0.34514
 Alpha  occ. eigenvalues --   -0.33284  -0.28836  -0.28549  -0.28217
 Alpha virt. eigenvalues --    0.08695   0.11552   0.14243   0.15087   0.15566
 Alpha virt. eigenvalues --    0.16338   0.17719   0.18216   0.19079   0.20009
 Alpha virt. eigenvalues --    0.21171   0.22396   0.23947   0.25353   0.26024
 Alpha virt. eigenvalues --    0.28561   0.32553   0.35038   0.50516   0.51414
 Alpha virt. eigenvalues --    0.55412   0.56490   0.56725   0.61149   0.61612
 Alpha virt. eigenvalues --    0.63921   0.64550   0.65264   0.69457   0.70294
 Alpha virt. eigenvalues --    0.71852   0.75211   0.78672   0.80301   0.84104
 Alpha virt. eigenvalues --    0.84879   0.86141   0.86867   0.87375   0.88300
 Alpha virt. eigenvalues --    0.89818   0.90598   0.92575   0.95838   0.97074
 Alpha virt. eigenvalues --    0.98651   1.00154   1.05933   1.09308   1.11663
 Alpha virt. eigenvalues --    1.16176   1.29465   1.40070   1.42948   1.46125
 Alpha virt. eigenvalues --    1.51034   1.51743   1.55946   1.59433   1.67428
 Alpha virt. eigenvalues --    1.69873   1.73212   1.76940   1.79202   1.81072
 Alpha virt. eigenvalues --    1.83960   1.85844   1.87606   1.93101   1.95662
 Alpha virt. eigenvalues --    2.01464   2.02617   2.05867   2.08872   2.11159
 Alpha virt. eigenvalues --    2.12115   2.21153   2.22260   2.28168   2.30065
 Alpha virt. eigenvalues --    2.32265   2.35169   2.35334   2.48459
          Condensed to atoms (all electrons):
               1          2          3          4          5          6
     1  C    4.924572   0.414684  -0.043484  -0.009509  -0.039762   0.412325
     2  C    0.414684   4.956816   0.388868  -0.038852  -0.016404  -0.034344
     3  C   -0.043484   0.388868   4.957256   0.411903  -0.034594  -0.013058
     4  C   -0.009509  -0.038852   0.411903   4.926794   0.410527  -0.042640
     5  C   -0.039762  -0.016404  -0.034594   0.410527   4.957176   0.391775
     6  C    0.412325  -0.034344  -0.013058  -0.042640   0.391775   4.954953
     7  H    0.370927  -0.031220   0.004720   0.000205   0.004734  -0.030387
     8  H    0.373511  -0.035691  -0.004118   0.002391  -0.005159  -0.037968
     9  H   -0.031534   0.370739  -0.030752   0.001627   0.000098   0.004543
    10  H   -0.035747   0.373353  -0.033321   0.002898   0.000183  -0.005367
    11  H    0.002811  -0.031113   0.372003  -0.029517   0.004323   0.000018
    12  H    0.001945  -0.032802   0.374438  -0.036862  -0.003448   0.000341
    13  H    0.002491  -0.003900  -0.036804   0.375350  -0.035175  -0.002891
    14  H    0.000232   0.004658  -0.030532   0.370999  -0.031875   0.004640
    15  H    0.000742   0.000103   0.004311  -0.031591   0.370858  -0.030875
    16  H    0.003415   0.000011  -0.002883  -0.034642   0.373594  -0.032846
    17  H   -0.038950  -0.005620   0.000471   0.001187  -0.033286   0.373817
    18  H   -0.029590   0.004451   0.000052   0.003246  -0.030643   0.371506
               7          8          9         10         11         12
     1  C    0.370927   0.373511  -0.031534  -0.035747   0.002811   0.001945
     2  C   -0.031220  -0.035691   0.370739   0.373353  -0.031113  -0.032802
     3  C    0.004720  -0.004118  -0.030752  -0.033321   0.372003   0.374438
     4  C    0.000205   0.002391   0.001627   0.002898  -0.029517  -0.036862
     5  C    0.004734  -0.005159   0.000098   0.000183   0.004323  -0.003448
     6  C   -0.030387  -0.037968   0.004543  -0.005367   0.000018   0.000341
     7  H    0.594665  -0.038222  -0.000826  -0.005598  -0.000107  -0.000143
     8  H   -0.038222   0.597253  -0.004745   0.005740   0.000250  -0.000102
     9  H   -0.000826  -0.004745   0.594572  -0.037950  -0.011123   0.004380
    10  H   -0.005598   0.005740  -0.037950   0.596582   0.003863  -0.010985
    11  H   -0.000107   0.000250  -0.011123   0.003863   0.589880  -0.037873
    12  H   -0.000143  -0.000102   0.004380  -0.010985  -0.037873   0.595325
    13  H   -0.000067   0.000200   0.000593  -0.000098  -0.004934   0.005730
    14  H   -0.000007  -0.000070  -0.000115  -0.000145  -0.001118  -0.005337
    15  H   -0.000116   0.001056   0.000015   0.000009  -0.000177  -0.000041
    16  H   -0.000148  -0.000038   0.000010  -0.000021  -0.000075   0.003295
    17  H   -0.003642   0.005879   0.000045   0.005303  -0.000004  -0.000215
    18  H   -0.002396  -0.003104  -0.000181  -0.000011   0.000006  -0.000001
              13         14         15         16         17         18
     1  C    0.002491   0.000232   0.000742   0.003415  -0.038950  -0.029590
     2  C   -0.003900   0.004658   0.000103   0.000011  -0.005620   0.004451
     3  C   -0.036804  -0.030532   0.004311  -0.002883   0.000471   0.000052
     4  C    0.375350   0.370999  -0.031591  -0.034642   0.001187   0.003246
     5  C   -0.035175  -0.031875   0.370858   0.373594  -0.033286  -0.030643
     6  C   -0.002891   0.004640  -0.030875  -0.032846   0.373817   0.371506
     7  H   -0.000067  -0.000007  -0.000116  -0.000148  -0.003642  -0.002396
     8  H    0.000200  -0.000070   0.001056  -0.000038   0.005879  -0.003104
     9  H    0.000593  -0.000115   0.000015   0.000010   0.000045  -0.000181
    10  H   -0.000098  -0.000145   0.000009  -0.000021   0.005303  -0.000011
    11  H   -0.004934  -0.001118  -0.000177  -0.000075  -0.000004   0.000006
    12  H    0.005730  -0.005337  -0.000041   0.003295  -0.000215  -0.000001
    13  H    0.593399  -0.037928  -0.006698   0.005604  -0.000140   0.000072
    14  H   -0.037928   0.595038   0.000451  -0.007321  -0.000134  -0.000103
    15  H   -0.006698   0.000451   0.594652  -0.038225   0.004715  -0.010653
    16  H    0.005604  -0.007321  -0.038225   0.596100  -0.010406   0.003267
    17  H   -0.000140  -0.000134   0.004715  -0.010406   0.597766  -0.037786
    18  H    0.000072  -0.000103  -0.010653   0.003267  -0.037786   0.589960
 Mulliken charges:
               1
     1  C   -0.279077
     2  C   -0.283737
     3  C   -0.284476
     4  C   -0.283515
     5  C   -0.282922
     6  C   -0.283543
     7  H    0.137628
     8  H    0.142938
     9  H    0.140604
    10  H    0.141312
    11  H    0.142887
    12  H    0.142353
    13  H    0.145198
    14  H    0.138668
    15  H    0.141462
    16  H    0.141308
    17  H    0.141002
    18  H    0.141909
 Sum of Mulliken charges =   0.00000
 Mulliken charges with hydrogens summed into heavy atoms:
               1
     1  C    0.001489
     2  C   -0.001820
     3  C    0.000764
     4  C    0.000351
     5  C   -0.000152
     6  C   -0.000632
 Electronic spatial extent (au):  <R**2>=            594.5036
 Charge=              0.0000 electrons
 Dipole moment (field-independent basis, Debye):
    X=             -0.0037    Y=              0.0226    Z=              0.0370  Tot=              0.0435
 Quadrupole moment (field-independent basis, Debye-Ang):
   XX=            -40.1317   YY=            -39.9527   ZZ=            -39.0346
   XY=             -0.0068   XZ=              0.0091   YZ=             -0.0206
 Traceless Quadrupole moment (field-independent basis, Debye-Ang):
   XX=             -0.4253   YY=             -0.2464   ZZ=              0.6717
   XY=             -0.0068   XZ=              0.0091   YZ=             -0.0206
 Octapole moment (field-independent basis, Debye-Ang**2):
  XXX=              0.0354  YYY=             -0.1142  ZZZ=             -0.5432  XYY=             -0.0796
  XXY=             -0.0248  XXZ=              1.6980  XZZ=             -0.0009  YZZ=              0.2266
  YYZ=             -0.5504  XYZ=              0.7876
 Hexadecapole moment (field-independent basis, Debye-Ang**3):
 XXXX=           -360.4307 YYYY=           -344.6621 ZZZZ=           -105.3863 XXXY=              1.9275
 XXXZ=              0.3750 YYYX=             -1.1655 YYYZ=             -0.7295 ZZZX=             -0.2615
 ZZZY=              0.2786 XXYY=           -118.0100 XXZZ=            -77.4175 YYZZ=            -77.1414
 XXYZ=             -0.1044 YYXZ=              0.2249 ZZXY=             -0.4473
 N-N= 2.543594888144D+02 E-N=-1.054263368746D+03  KE= 2.342186837658D+02
 No NMR shielding tensors so no spin-rotation constants.
 Leave Link  601 at Tue Jan 26 12:15:12 2016, MaxMem=  2013265920 cpu:         1.6
 (Enter /public/apps/gaussian//g09/l701.exe)
 Compute integral first derivatives.
 ... and contract with generalized density number  0.
 D1PCM: PCM CHGder 1st derivatives, ID1Alg=3 FixD1E=F DoIter=F DoCFld=F I1PDM=0.
 GePol: Maximum number of non-zero 1st derivatives   =     202
 Leave Link  701 at Tue Jan 26 12:15:13 2016, MaxMem=  2013265920 cpu:         4.3
 (Enter /public/apps/gaussian//g09/l702.exe)
 L702 exits ... SP integral derivatives will be done elsewhere.
 Leave Link  702 at Tue Jan 26 12:15:13 2016, MaxMem=  2013265920 cpu:         0.1
 (Enter /public/apps/gaussian//g09/l703.exe)
 Compute integral first derivatives, UseDBF=F ICtDFT=           0.
 Integral derivatives from FoFJK, PRISM(SPDF).
 Calling FoFJK, ICntrl=      2127 FMM=F ISym2X=0 I1Cent= 0 IOpClX= 0 NMat=1 NMatS=1 NMatT=0.
 FoFJK:  IHMeth= 1 ICntrl=    2127 DoSepK=F KAlg= 0 I1Cent=   0 FoldK=F
 IRaf=         0 NMat=   1 IRICut=       1 DoRegI=T DoRafI=F ISym2E= 0.
 FoFCou: FMM=F IPFlag=           0 FMFlag=      100000 FMFlg1=         800
         NFxFlg=           0 DoJE=F BraDBF=F KetDBF=F FulRan=T
         wScrn=  0.000000 ICntrl=    2127 IOpCl=  0 I1Cent=           0 NGrid=           0
         NMat0=    1 NMatS0=      1 NMatT0=    0 NMatD0=    1 NMtDS0=    0 NMtDT0=    0
 Symmetry not used in FoFCou.
 Leave Link  703 at Tue Jan 26 12:15:14 2016, MaxMem=  2013265920 cpu:         8.4
 (Enter /public/apps/gaussian//g09/l716.exe)
 Dipole        =-1.43607449D-03 8.88217925D-03 1.45731813D-02
 ***** Axes restored to original set *****
 -------------------------------------------------------------------
 Center     Atomic                   Forces (Hartrees/Bohr)
 Number     Number              X              Y              Z
 -------------------------------------------------------------------
      1        6           0.000239712    0.000136294   -0.000100209
      2        6          -0.000980636    0.000316519    0.000316602
      3        6           0.001984161    0.001212797    0.002177426
      4        6          -0.000604197   -0.000805274   -0.003815172
      5        6           0.000509238   -0.000699011    0.000740356
      6        6          -0.000638215   -0.001925098    0.001238949
      7        1          -0.000040997    0.000383336   -0.000463976
      8        1          -0.000085245    0.000480179   -0.000310948
      9        1           0.000089006   -0.000581026    0.000373618
     10        1          -0.000053566   -0.000151351    0.000046580
     11        1          -0.000408132   -0.000538897   -0.000758807
     12        1           0.000142218    0.000058374   -0.000692813
     13        1          -0.000247929    0.000744942    0.000962780
     14        1          -0.000577982   -0.000229581    0.001359938
     15        1           0.000151459    0.000596042    0.000054642
     16        1          -0.000103591    0.000646069   -0.000873320
     17        1           0.000089620    0.000328505   -0.000168991
     18        1           0.000535075    0.000027182   -0.000086656
 -------------------------------------------------------------------
 Cartesian Forces:  Max     0.003815172 RMS     0.000886619
 Leave Link  716 at Tue Jan 26 12:15:14 2016, MaxMem=  2013265920 cpu:         0.2
 (Enter /public/apps/gaussian//g09/l103.exe)

 GradGradGradGradGradGradGradGradGradGradGradGradGradGradGradGradGradGrad
 Berny optimization.
 FormGI is forming the generalized inverse of G from B-inverse, IUseBI=4.
 Internal  Forces:  Max     0.001273741 RMS     0.000350100
 Search for a local minimum.
 Step number   1 out of a maximum of  108
 All quantities printed in internal units (Hartrees-Bohrs-Radians)
 RMS Force = .35010D-03 SwitMx=.10000D-02 MixMth= 2
 Mixed Optimization -- En-DIIS/RFO-DIIS
 Second derivative matrix not updated -- first step.
 ITU=  0
     Eigenvalues ---    0.00239   0.00356   0.00629   0.01860   0.01915
     Eigenvalues ---    0.03361   0.03498   0.03714   0.04129   0.04592
     Eigenvalues ---    0.04709   0.04780   0.05202   0.05345   0.05745
     Eigenvalues ---    0.06045   0.07948   0.08070   0.08230   0.08259
     Eigenvalues ---    0.08297   0.08392   0.08703   0.09006   0.12012
     Eigenvalues ---    0.12172   0.12247   0.18296   0.19655   0.21873
     Eigenvalues ---    0.25085   0.26585   0.26926   0.27381   0.28336
     Eigenvalues ---    0.28578   0.33619   0.33740   0.33750   0.33777
     Eigenvalues ---    0.33831   0.33859   0.33876   0.33881   0.33912
     Eigenvalues ---    0.33949   0.33969   0.33992
 RFO step:  Lambda=-4.95484419D-04 EMin= 2.39200143D-03
 Linear search not attempted -- first point.
 Iteration  1 RMS(Cart)=  0.02739008 RMS(Int)=  0.00045527
 Iteration  2 RMS(Cart)=  0.00055654 RMS(Int)=  0.00011527
 Iteration  3 RMS(Cart)=  0.00000010 RMS(Int)=  0.00011527
 ITry= 1 IFail=0 DXMaxC= 1.16D-01 DCOld= 1.00D+10 DXMaxT= 3.00D-01 DXLimC= 3.00D+00 Rises=F
 Variable       Old X    -DE/DX   Delta X   Delta X   Delta X     New X
                                 (Linear)    (Quad)   (Total)
    R1        2.90663   0.00005   0.00000   0.00287   0.00280   2.90943
    R2        2.90093  -0.00002   0.00000   0.00311   0.00314   2.90408
    R3        2.07540   0.00041   0.00000   0.00121   0.00121   2.07660
    R4        2.07977  -0.00041   0.00000  -0.00120  -0.00120   2.07857
    R5        2.94582  -0.00015   0.00000  -0.00100  -0.00106   2.94475
    R6        2.07569   0.00006   0.00000   0.00018   0.00018   2.07587
    R7        2.07772  -0.00010   0.00000  -0.00029  -0.00029   2.07743
    R8        2.91318  -0.00127   0.00000  -0.00732  -0.00730   2.90589
    R9        2.07416   0.00026   0.00000   0.00078   0.00078   2.07493
   R10        2.07478   0.00065   0.00000   0.00192   0.00192   2.07671
   R11        2.91665   0.00020   0.00000  -0.00243  -0.00241   2.91424
   R12        2.07343   0.00105   0.00000   0.00308   0.00308   2.07650
   R13        2.07708  -0.00013   0.00000  -0.00039  -0.00039   2.07670
   R14        2.94155  -0.00061   0.00000  -0.00180  -0.00175   2.93979
   R15        2.07617   0.00009   0.00000   0.00027   0.00027   2.07643
   R16        2.07531   0.00051   0.00000   0.00151   0.00151   2.07682
   R17        2.07754   0.00023   0.00000   0.00069   0.00069   2.07823
   R18        2.07382   0.00037   0.00000   0.00110   0.00110   2.07492
    A1        1.92705  -0.00028   0.00000   0.00638   0.00601   1.93307
    A2        1.91869   0.00011   0.00000  -0.00302  -0.00282   1.91588
    A3        1.91948   0.00010   0.00000   0.00078   0.00079   1.92027
    A4        1.93066   0.00023   0.00000  -0.00248  -0.00242   1.92823
    A5        1.91213  -0.00011   0.00000  -0.00092  -0.00078   1.91135
    A6        1.85457  -0.00004   0.00000  -0.00104  -0.00110   1.85347
    A7        1.96556  -0.00040   0.00000   0.00145   0.00085   1.96641
    A8        1.91092   0.00031   0.00000   0.00396   0.00418   1.91510
    A9        1.89058   0.00022   0.00000  -0.00181  -0.00167   1.88891
   A10        1.93172   0.00002   0.00000  -0.00206  -0.00193   1.92979
   A11        1.91191  -0.00019   0.00000  -0.00394  -0.00372   1.90819
   A12        1.84906   0.00009   0.00000   0.00244   0.00234   1.85141
   A13        1.96065   0.00083   0.00000   0.00043  -0.00009   1.96056
   A14        1.92270  -0.00031   0.00000   0.00262   0.00278   1.92548
   A15        1.91823  -0.00016   0.00000  -0.00202  -0.00189   1.91634
   A16        1.90407   0.00001   0.00000   0.00300   0.00312   1.90719
   A17        1.89880  -0.00035   0.00000  -0.00050  -0.00031   1.89849
   A18        1.85629  -0.00007   0.00000  -0.00376  -0.00384   1.85245
   A19        1.96400  -0.00003   0.00000  -0.00674  -0.00694   1.95706
   A20        1.91077  -0.00024   0.00000  -0.00754  -0.00765   1.90312
   A21        1.91143   0.00004   0.00000   0.00847   0.00857   1.92000
   A22        1.91860  -0.00008   0.00000  -0.00619  -0.00625   1.91234
   A23        1.89991   0.00052   0.00000   0.01483   0.01488   1.91479
   A24        1.85596  -0.00020   0.00000  -0.00238  -0.00235   1.85361
   A25        1.97512  -0.00047   0.00000  -0.00691  -0.00705   1.96807
   A26        1.89251   0.00058   0.00000   0.00712   0.00713   1.89964
   A27        1.90047   0.00048   0.00000   0.00446   0.00446   1.90493
   A28        1.92785  -0.00027   0.00000  -0.00216  -0.00204   1.92581
   A29        1.91799  -0.00041   0.00000  -0.00652  -0.00654   1.91144
   A30        1.84509   0.00014   0.00000   0.00507   0.00501   1.85010
   A31        1.94202   0.00086   0.00000   0.01093   0.01089   1.95291
   A32        1.89037  -0.00029   0.00000  -0.00253  -0.00253   1.88784
   A33        1.92645  -0.00006   0.00000   0.00027   0.00028   1.92673
   A34        1.91493  -0.00023   0.00000  -0.00120  -0.00129   1.91364
   A35        1.93004  -0.00034   0.00000  -0.00398  -0.00391   1.92613
   A36        1.85769   0.00002   0.00000  -0.00417  -0.00418   1.85350
    D1        0.87865  -0.00054   0.00000  -0.05560  -0.05554   0.82312
    D2        3.03571  -0.00057   0.00000  -0.05434  -0.05435   2.98136
    D3       -1.23868  -0.00019   0.00000  -0.05033  -0.05025  -1.28893
    D4        3.01353  -0.00037   0.00000  -0.05651  -0.05648   2.95704
    D5       -1.11261  -0.00040   0.00000  -0.05525  -0.05529  -1.16790
    D6        0.89619  -0.00001   0.00000  -0.05124  -0.05120   0.84499
    D7       -1.23353  -0.00029   0.00000  -0.05909  -0.05901  -1.29253
    D8        0.92353  -0.00032   0.00000  -0.05783  -0.05782   0.86571
    D9        2.93232   0.00007   0.00000  -0.05382  -0.05372   2.87860
   D10       -1.06265   0.00026   0.00000   0.01486   0.01507  -1.04758
   D11        1.04353   0.00031   0.00000   0.01846   0.01854   1.06207
   D12        3.07091   0.00013   0.00000   0.01215   0.01223   3.08313
   D13        3.09270   0.00015   0.00000   0.01605   0.01620   3.10891
   D14       -1.08430   0.00021   0.00000   0.01964   0.01968  -1.06463
   D15        0.94307   0.00003   0.00000   0.01333   0.01336   0.95644
   D16        1.05390   0.00013   0.00000   0.01933   0.01943   1.07333
   D17       -3.12310   0.00019   0.00000   0.02293   0.02290  -3.10020
   D18       -1.09573   0.00001   0.00000   0.01661   0.01658  -1.07914
   D19        0.10675   0.00002   0.00000   0.06183   0.06189   0.16864
   D20        2.23336   0.00038   0.00000   0.06784   0.06782   2.30118
   D21       -2.00997   0.00002   0.00000   0.06360   0.06366  -1.94631
   D22       -2.03871  -0.00010   0.00000   0.05717   0.05727  -1.98144
   D23        0.08790   0.00026   0.00000   0.06318   0.06320   0.15110
   D24        2.12776  -0.00010   0.00000   0.05894   0.05904   2.18680
   D25        2.21189  -0.00010   0.00000   0.05776   0.05776   2.26965
   D26       -1.94469   0.00026   0.00000   0.06377   0.06369  -1.88099
   D27        0.09517  -0.00010   0.00000   0.05953   0.05953   0.15470
   D28       -0.93472   0.00003   0.00000  -0.04398  -0.04395  -0.97867
   D29        1.20427  -0.00027   0.00000  -0.06193  -0.06192   1.14235
   D30       -3.05033  -0.00062   0.00000  -0.06427  -0.06428  -3.11461
   D31       -3.07190  -0.00013   0.00000  -0.04972  -0.04965  -3.12155
   D32       -0.93291  -0.00043   0.00000  -0.06767  -0.06763  -1.00054
   D33        1.09567  -0.00079   0.00000  -0.07002  -0.06998   1.02569
   D34        1.19309   0.00013   0.00000  -0.04660  -0.04661   1.14649
   D35       -2.95110  -0.00017   0.00000  -0.06456  -0.06459  -3.01568
   D36       -0.92252  -0.00053   0.00000  -0.06690  -0.06694  -0.98946
   D37        0.75241  -0.00026   0.00000   0.00396   0.00381   0.75622
   D38        2.89762  -0.00050   0.00000   0.00170   0.00160   2.89922
   D39       -1.38595   0.00023   0.00000   0.01377   0.01373  -1.37221
   D40       -1.38217   0.00013   0.00000   0.02276   0.02268  -1.35950
   D41        0.76304  -0.00011   0.00000   0.02050   0.02047   0.78350
   D42        2.76266   0.00062   0.00000   0.03258   0.03260   2.79525
   D43        2.87459   0.00012   0.00000   0.02060   0.02054   2.89513
   D44       -1.26339  -0.00011   0.00000   0.01835   0.01832  -1.24506
   D45        0.73623   0.00062   0.00000   0.03042   0.03045   0.76669
   D46        0.23146   0.00004   0.00000   0.00716   0.00713   0.23859
   D47       -1.86021   0.00001   0.00000   0.00415   0.00418  -1.85603
   D48        2.37904   0.00033   0.00000   0.01234   0.01236   2.39140
   D49       -1.89405  -0.00018   0.00000   0.00439   0.00434  -1.88971
   D50        2.29747  -0.00022   0.00000   0.00138   0.00139   2.29886
   D51        0.25353   0.00010   0.00000   0.00957   0.00958   0.26310
   D52        2.36004   0.00004   0.00000   0.00336   0.00331   2.36335
   D53        0.26837   0.00001   0.00000   0.00035   0.00036   0.26873
   D54       -1.77557   0.00032   0.00000   0.00854   0.00854  -1.76703
         Item               Value     Threshold  Converged?
 Maximum Force            0.001274     0.000450     NO 
 RMS     Force            0.000350     0.000300     NO 
 Maximum Displacement     0.116068     0.001800     NO 
 RMS     Displacement     0.027386     0.001200     NO 
 Predicted change in Energy=-2.731267D-04
 Lowest energy point so far.  Saving SCF results.
 GradGradGradGradGradGradGradGradGradGradGradGradGradGradGradGradGradGrad

 Leave Link  103 at Tue Jan 26 12:15:15 2016, MaxMem=  2013265920 cpu:         2.0
 (Enter /public/apps/gaussian//g09/l202.exe)
                          Input orientation:                          
 ---------------------------------------------------------------------
 Center     Atomic      Atomic             Coordinates (Angstroms)
 Number     Number       Type             X           Y           Z
 ---------------------------------------------------------------------
      1          6           0       -0.276408    1.335917    0.437108
      2          6           0       -1.429759    0.489823   -0.132361
      3          6           0       -1.055780   -1.016106   -0.275913
      4          6           0        0.283967   -1.352420    0.399795
      5          6           0        1.438613   -0.480143   -0.133268
      6          6           0        1.041767    1.016352   -0.285360
      7          1           0       -0.517263    2.403955    0.343057
      8          1           0       -0.162038    1.140842    1.513544
      9          1           0       -2.322059    0.607554    0.497440
     10          1           0       -1.697999    0.893820   -1.118950
     11          1           0       -1.845834   -1.647631    0.151419
     12          1           0       -0.992464   -1.284136   -1.339789
     13          1           0        0.184444   -1.208437    1.484605
     14          1           0        0.523336   -2.414759    0.252116
     15          1           0        2.299809   -0.580217    0.541781
     16          1           0        1.768225   -0.873210   -1.105208
     17          1           0        0.916501    1.259184   -1.350628
     18          1           0        1.847376    1.664621    0.083892
 ---------------------------------------------------------------------
                    Distance matrix (angstroms):
                    1          2          3          4          5
     1  C    0.000000
     2  C    1.539606   0.000000
     3  C    2.578338   1.558297   0.000000
     4  C    2.746373   2.571752   1.537729   0.000000
     5  C    2.562166   3.027935   2.555308   1.542152   0.000000
     6  C    1.536771   2.531617   2.920732   2.579686   1.555672
     7  H    1.098891   2.173148   3.517093   3.841294   3.517151
     8  H    1.099932   2.177142   2.941658   2.766895   2.810990
     9  H    2.172289   1.098503   2.199502   3.262270   3.965291
    10  H    2.153529   1.099330   2.184257   3.358627   3.563380
    11  H    3.383234   2.195987   1.098008   2.164461   3.497380
    12  H    3.245731   2.189986   1.098945   2.158724   2.830588
    13  H    2.789869   2.846808   2.162075   1.098839   2.172755
    14  H    3.839450   3.521221   2.174546   1.098940   2.174625
    15  H    3.212385   3.938164   3.481178   2.163349   1.098802
    16  H    3.382233   3.609902   2.946718   2.167417   1.099005
    17  H    2.150562   2.753367   3.197162   3.206954   2.186280
    18  H    2.177904   3.488056   3.967880   3.412709   2.194142
                    6          7          8          9         10
     6  C    0.000000
     7  H    2.179661   0.000000
     8  H    2.168110   1.758317   0.000000
     9  H    3.477818   2.551113   2.445927   0.000000
    10  H    2.866393   2.410832   3.057814   1.756165   0.000000
    11  H    3.952951   4.268158   3.530741   2.330747   2.845113
    12  H    3.246869   4.081641   3.835574   2.953256   2.300009
    13  H    2.969421   3.852908   2.374868   3.248827   3.839476
    14  H    3.511434   4.930630   3.834479   4.158224   4.214362
    15  H    2.194507   4.108609   3.157064   4.772257   4.573105
    16  H    2.184110   4.249792   3.826248   4.635899   3.890667
    17  H    1.099752   2.496948   3.062798   3.785267   2.650053
    18  H    1.098001   2.491043   2.521110   4.321181   3.822388
                   11         12         13         14         15
    11  H    0.000000
    12  H    1.756151   0.000000
    13  H    2.468260   3.060726   0.000000
    14  H    2.492306   2.471865   1.757580   0.000000
    15  H    4.298617   3.856795   2.399655   2.570079   0.000000
    16  H    3.903877   2.800944   3.054156   2.401760   1.755277
    17  H    4.282080   3.180053   3.829308   4.027557   2.979622
    18  H    4.961388   4.334366   3.603027   4.292170   2.335306
                   16         17         18
    16  H    0.000000
    17  H    2.309278   0.000000
    18  H    2.803714   1.757485   0.000000
 Stoichiometry    C6H12
 Framework group  C1[X(C6H12)]
 Deg. of freedom    48
 Full point group                 C1      NOp   1
 RotChk:  IX=0 Diff= 1.42D-01
 Largest Abelian subgroup         C1      NOp   1
 Largest concise Abelian subgroup C1      NOp   1
                         Standard orientation:                         
 ---------------------------------------------------------------------
 Center     Atomic      Atomic             Coordinates (Angstroms)
 Number     Number       Type             X           Y           Z
 ---------------------------------------------------------------------
      1          6           0        0.410086   -1.304986    0.430424
      2          6           0        1.471698   -0.345567   -0.137804
      3          6           0        0.948795    1.116045   -0.274015
      4          6           0       -0.416122    1.314050    0.405988
      5          6           0       -1.479212    0.332986   -0.128414
      6          6           0       -0.935252   -1.115738   -0.287851
      7          1           0        0.756184   -2.343223    0.331220
      8          1           0        0.279540   -1.126743    1.507938
      9          1           0        2.372895   -0.376157    0.489585
     10          1           0        1.776442   -0.716683   -1.126708
     11          1           0        1.672897    1.821575    0.154382
     12          1           0        0.856316    1.380783   -1.336579
     13          1           0       -0.299956    1.176268    1.489948
     14          1           0       -0.760788    2.347759    0.263437
     15          1           0       -2.344377    0.343746    0.548888
     16          1           0       -1.848911    0.695153   -1.097934
     17          1           0       -0.789066   -1.340456   -1.354428
     18          1           0       -1.671132   -1.842760    0.080286
 ---------------------------------------------------------------------
 Rotational constants (GHZ):      4.3091277      4.1504033      2.4877679
 Leave Link  202 at Tue Jan 26 12:15:15 2016, MaxMem=  2013265920 cpu:         0.5
 (Enter /public/apps/gaussian//g09/l301.exe)
 Basis read from rwf:  (5D, 7F)
 No pseudopotential information found on rwf file.
 There are   114 symmetry adapted cartesian basis functions of A   symmetry.
 There are   108 symmetry adapted basis functions of A   symmetry.
   108 basis functions,   216 primitive gaussians,   114 cartesian basis functions
    24 alpha electrons       24 beta electrons
       nuclear repulsion energy       254.3952619606 Hartrees.
 IExCor=  402 DFT=T Ex+Corr=B3LYP ExCW=0 ScaHFX=  0.200000
 ScaDFX=  0.800000  0.720000  1.000000  0.810000 ScalE2=  1.000000  1.000000
 IRadAn=      0 IRanWt=     -1 IRanGd=            0 ICorTp=0 IEmpDi=  4
 NAtoms=   18 NActive=   18 NUniq=   18 SFac= 1.00D+00 NAtFMM=   60 NAOKFM=F Big=F
 Integral buffers will be    131072 words long.
 Raffenetti 2 integral format.
 Two-electron integral symmetry is turned on.
 No density basis found on file   724.
 ------------------------------------------------------------------------------
 Polarizable Continuum Model (PCM)
 =================================
 Model                : PCM (using non-symmetric T matrix).
 Atomic radii         : SMD-Coulomb.
 Polarization charges : Total charges.
 Charge compensation  : None.
 Solution method      : On-the-fly selection.
 Cavity type          : VdW (van der Waals Surface) (Alpha=1.000).
 Cavity algorithm     : GePol (No added spheres)
                        Default sphere list used, NSphG=   18.
                        Lebedev-Laikov grids with approx.  5.0 points / Ang**2.
                        Smoothing algorithm: Karplus/York (Gamma=1.0000).
                        Polarization charges: spherical gaussians, with
                                              point-specific exponents (IZeta= 3).
                        Self-potential: point-specific (ISelfS= 7).
                        Self-field    : sphere-specific E.n sum rule (ISelfD= 2).
 1st derivatives      : Analytical E(r).r(x)/FMM algorithm (CHGder, D1EAlg=3).
                        Cavity 1st derivative terms included.
 Solvent              : Water, Eps=  78.355300 Eps(inf)=   1.777849
 ------------------------------------------------------------------------------
 Spheres list:
 ISph  on   Nord     Re0    Alpha      Xe            Ye            Ze
    1   C      1    1.8500  1.000      0.410086     -1.304986      0.430424
    2   C      2    1.8500  1.000      1.471698     -0.345567     -0.137804
    3   C      3    1.8500  1.000      0.948795      1.116045     -0.274015
    4   C      4    1.8500  1.000     -0.416122      1.314050      0.405988
    5   C      5    1.8500  1.000     -1.479212      0.332986     -0.128414
    6   C      6    1.8500  1.000     -0.935252     -1.115738     -0.287851
    7   H      7    1.2000  1.000      0.756184     -2.343223      0.331220
    8   H      8    1.2000  1.000      0.279540     -1.126743      1.507938
    9   H      9    1.2000  1.000      2.372895     -0.376157      0.489585
   10   H     10    1.2000  1.000      1.776442     -0.716683     -1.126708
   11   H     11    1.2000  1.000      1.672897      1.821575      0.154382
   12   H     12    1.2000  1.000      0.856316      1.380783     -1.336579
   13   H     13    1.2000  1.000     -0.299956      1.176268      1.489948
   14   H     14    1.2000  1.000     -0.760788      2.347759      0.263437
   15   H     15    1.2000  1.000     -2.344377      0.343746      0.548888
   16   H     16    1.2000  1.000     -1.848911      0.695153     -1.097934
   17   H     17    1.2000  1.000     -0.789066     -1.340456     -1.354428
   18   H     18    1.2000  1.000     -1.671132     -1.842760      0.080286
 ------------------------------------------------------------------------------
 GePol: Number of generator spheres                  =      18
 GePol: Total number of spheres                      =      18
 GePol: Number of exposed spheres                    =      18 (100.00%)
 GePol: Number of points                             =    1189
 GePol: Average weight of points                     =       0.11
 GePol: Minimum weight of points                     =   0.86D-10
 GePol: Maximum weight of points                     =    0.17992
 GePol: Number of points with low weight             =      69
 GePol: Fraction of low-weight points (<1% of avg)   =       5.80%
 GePol: Cavity surface area                          =    130.922 Ang**2
 GePol: Cavity volume                                =    108.397 Ang**3
 ------------------------------------------------------------------------------
[...]
 278288,0.1255945,0.0158872,0.0658763,0.0158914,0.1331166,0.016393,0.01
 46336,-0.0217876,0.2183979,-0.0132455,0.0665933,-0.006303,0.0581709,-0
 .2798188,0.0122004,0.0018289,0.0226241,0.054673,-0.01976,-0.0200961,-0
 .0501008,-0.0161342,0.0466522,0.0218276,-0.0497288,-0.0110798,-0.26220
 33,-0.1339725,0.0030092,0.1438212,-0.0277917,0.0025477,-0.0093455,0.16
 71156,-0.0227863,-0.1245916,-0.0723455,0.0538947,-0.1201325,0.0847151,
 -0.0595828,0.079587,-0.1468024,0.0830433,-0.1240926,-0.1711546,-0.1492
 592,0.0126771,-0.1408956,-0.1219158,0.0060124,0.0125302,0.0192383,0.05
 46588,0.0222108,0.0387209,0.0526544,0.034818,0.0048537,-0.0128738,0.03
 24305,-0.0388258,-0.2623637,-0.0197701,-0.0204089,0.049999,-0.0164397,
 0.0467061,-0.0198955,0.0496631,0.0130093,-0.2622393,-0.0132251,0.06654
 34,0.0067016,0.0581742,-0.279558,-0.0142597,-0.0014754,-0.0246967,0.05
 44183,-0.1338601,0.003855,-0.1437861,-0.0268053,0.0023467,0.0100782,-0
 .1672683,0.0235404,-0.1244906,-0.0724251,0.0531935,0.1204704,0.0838471
 ,-0.0586148,-0.0791727,0.1473151,-0.082622,-0.1249597,0.0222511,0.0390
 235,-0.052282,0.0350041,0.0045251,0.0145458,-0.0320914,0.0404938,-0.26
 20743,-0.1711177,-0.1491626,-0.013682,-0.1408022,-0.1217294,-0.0071467
 ,-0.0134985,-0.0203906,0.0544511\Polar=85.5587901,-0.0862701,85.335353
 9,-0.0000389,0.0037196,84.2787506\PG=C01 [X(C6H12)]\NImag=0\\0.4431740
 9,-0.03687319,0.56792302,0.02224294,-0.02610110,0.55587465,-0.13810404
 ,-0.04297638,-0.02416155,0.52594359,-0.04068751,-0.10772220,-0.0143323
 2,-0.02902973,0.44977335,-0.02052167,-0.01521736,-0.08598512,-0.014510
 00,-0.04309063,0.57988247,0.00979406,-0.02328055,-0.00493419,-0.086616
 58,0.02459060,0.00712013,0.52441297,-0.00200605,-0.02340325,-0.0038459
 3,0.02687892,-0.15913805,-0.02461241,0.06993333,0.48661767,0.00157724,
 -0.00602357,-0.00164226,0.01055451,-0.02611505,-0.08605153,-0.03339591
 ,-0.00746251,0.55598104,0.00040052,-0.00080857,-0.00001627,-0.00842125
 ,0.01111354,-0.00396784,-0.14857811,0.02430647,-0.04549507,0.44314501,
 -0.00080864,-0.00059154,0.00013727,0.02691624,-0.01357193,0.01790642,0
 .02448324,-0.08500190,0.01508724,-0.03678268,0.56757953,0.00001115,-0.
 00015647,0.00261276,0.00562053,0.00230607,0.00523360,-0.04526574,0.015
 75511,-0.11198785,-0.02245754,0.02618077,0.55622885,-0.00842239,0.0269
 5826,-0.00545732,0.00126303,-0.00075500,-0.00001979,-0.02863050,-0.015
 44477,0.00291957,-0.13807266,-0.04309806,0.02387238,0.52589309,0.01109
 128,-0.01344908,-0.00241816,-0.00075514,-0.00072058,-0.00005452,0.0004
 4993,0.00674610,-0.00522771,-0.04078431,-0.10787958,0.01417753,-0.0291
 4649,0.44921766,0.00403138,-0.01801095,0.00510691,0.00001527,0.0000477
 3,0.00039752,-0.01406624,-0.01186162,0.00511384,0.02024753,0.01506293,
 -0.08579078,0.01433282,0.04233544,0.58041740,-0.14858259,0.02419675,0.
 04539332,-0.02862955,0.00036296,0.01406109,0.00081148,-0.00026663,0.00
 009848,0.00979243,-0.02330718,0.00479617,-0.08660402,0.02461518,-0.006
 96866,0.52434684,0.02401976,-0.08480994,-0.01557766,-0.01542772,0.0066
 4111,0.01186828,-0.00026599,-0.00100808,0.00009655,-0.00199741,-0.0234
 5566,0.00371102,0.02693111,-0.15941907,0.02417206,0.06973990,0.4864757
 8,0.04561474,-0.01490685,-0.11214216,-0.00302526,0.00523695,0.00522337
 ,-0.00010053,-0.00011784,0.00261346,-0.00158682,0.00588116,-0.00158303
 ,-0.01038873,0.02566864,-0.08575067,0.03383627,0.00705984,0.55614026,-
 0.05849335,0.05311692,-0.00898937,0.00511235,-0.02582294,0.00268345,-0
 .00407670,-0.00170218,-0.00012587,-0.00057313,-0.00029724,0.00011027,-
 0.00374356,0.00023914,0.00478418,-0.00658615,0.02687118,-0.00736113,0.
 06630937,0.05331912,-0.28687922,0.04533836,0.00424495,-0.01618211,0.00
 223603,-0.00363689,-0.00021080,0.00032836,-0.00010816,0.00081383,-0.00
 034944,0.00104925,0.00095346,-0.00167893,0.00089226,-0.00687507,0.0021
 3663,-0.05714926,0.31020730,-0.00925176,0.04750385,-0.05824974,0.00065
 645,-0.01013789,-0.00015638,-0.00191051,-0.00110844,0.00037276,0.00003
 303,0.00034920,-0.00045077,0.00271036,-0.00008140,-0.00128740,0.003861
 39,-0.01762918,0.00339146,0.01122899,-0.04858395,0.05890668,-0.0547392
 2,0.00491420,-0.04372831,-0.00869953,0.00263843,-0.02496525,-0.0003478
 6,0.00054658,0.00016010,0.00006271,0.00019320,-0.00030680,0.00126995,-
 0.00062797,-0.00032185,0.00444432,-0.00254056,0.02962475,-0.00148523,0
 .00064680,-0.00695339,0.06435414,0.00449267,-0.05422153,0.02277196,-0.
 00411129,0.00184889,-0.01819775,-0.00032544,0.00060284,0.00000512,-0.0
 0000933,-0.00072980,0.00025573,-0.00030905,0.00021341,-0.00066463,-0.0
 0148471,0.00062616,-0.00977985,0.00486729,-0.00220013,0.03129405,-0.00
 354040,0.05367233,-0.04500421,0.02120347,-0.29087792,-0.00099122,0.001
 58836,-0.00646263,-0.00032352,0.00017842,0.00030609,-0.00013136,0.0001
 8357,-0.00055725,-0.00016989,0.00072887,0.00064737,-0.00163746,0.00126
 144,-0.01818473,-0.00105858,0.00152891,-0.00551365,0.04618919,-0.02370
 083,0.31705539,-0.01790173,-0.00050670,0.01870646,-0.15236276,-0.00391
 787,0.12526389,-0.00487260,-0.00159666,0.00614289,0.00027259,-0.000036
 87,0.00043514,0.00050539,-0.00053853,0.00014309,-0.00287913,-0.0043676
 0,-0.00215449,-0.00037238,-0.00062467,-0.00002338,0.00149588,0.0008172
 1,0.00005441,0.16485113,-0.01225196,0.00044522,0.01404429,-0.00513195,
 -0.04893702,0.01016491,0.01820011,-0.00164220,-0.02567092,-0.00094189,
 0.00024982,-0.00111553,-0.00004634,-0.00014885,0.00011394,-0.00174058,
 -0.00254842,-0.00147845,0.00036859,-0.00036805,-0.00014064,0.00054693,
 0.00127607,-0.00008574,0.00862231,0.05480382,-0.00821255,-0.00065631,0
 .00637185,0.12605500,0.00969172,-0.20229591,0.00333177,-0.00050247,-0.
 00677029,-0.00010797,-0.00019793,0.00010328,-0.00000971,-0.00025622,0.
 00001470,-0.00141679,-0.00074150,0.00057737,0.00044427,0.00001006,0.00
 008511,-0.00015943,0.00021083,0.00190271,-0.13624325,-0.00604832,0.217
 26716,-0.01172729,0.00926081,-0.02043068,-0.11034146,0.05062282,-0.093
 60910,-0.00502241,0.00466075,-0.00635730,0.00018847,0.00228224,0.00082
 049,0.00054695,0.00000828,-0.00004553,0.00073411,-0.00033343,-0.001022
 90,0.00183377,0.00041248,0.00056539,-0.00365784,-0.00227232,-0.0010793
 3,0.01136269,-0.00942979,0.01589572,0.11648765,-0.01057590,0.00518452,
 -0.01668221,0.05184659,-0.09134462,0.08395362,0.01644042,-0.01245101,0
 .02246299,-0.00034578,-0.00561111,-0.00248460,-0.00048340,-0.00019068,
 0.00017791,0.00057080,-0.00021300,-0.00062484,0.00026699,0.00179223,-0
 .00040667,-0.00385192,-0.00126992,-0.00134960,0.00021464,-0.00075723,0
 .00121406,-0.05552074,0.10359838,-0.00295628,0.00160982,-0.00674278,-0
 .09452613,0.08405220,-0.20189910,0.00616228,-0.00551889,0.00637647,0.0
 0067849,-0.00145549,0.00057277,-0.00014864,-0.00020988,0.00001503,-0.0
 0003478,-0.00022271,0.00010449,0.00029549,-0.00042732,0.00106803,-0.00
 203647,-0.00134059,0.00064427,-0.01196019,0.01061989,-0.01938709,0.104
 85591,-0.08731250,0.21683873,-0.00008302,0.00160349,0.00030082,0.00769
 123,0.00762845,-0.00078893,-0.19347556,-0.12410652,0.03475654,-0.02008
 946,-0.01684458,0.00717557,-0.00265269,0.00250257,-0.00481991,0.000130
 94,0.00081762,-0.00030004,0.00035903,0.00028595,0.00011116,-0.00001180
 ,0.00000312,0.00001439,0.00148729,-0.00004008,-0.00049473,-0.00024793,
 -0.00046047,-0.00034711,0.21076905,0.00354076,-0.00420159,0.00017654,-
 0.02242175,-0.01876308,0.00342937,-0.12431601,-0.15182540,0.03076281,0
 .00916373,0.00661914,-0.00276967,0.00169116,-0.00015085,0.00156026,0.0
 0062742,0.00010932,-0.00021209,-0.00145738,-0.00117837,-0.00059505,-0.
 00021049,-0.00015473,-0.00027601,-0.00018082,0.00213785,-0.00015974,0.
 00053324,-0.00049311,0.00027598,0.13273763,0.16566833,0.00085182,-0.00
 204458,0.00036972,-0.00669242,-0.00769080,-0.00014712,0.03627996,0.032
 32639,-0.05832191,-0.01371414,-0.01166006,0.00339518,-0.00220289,0.001
 57394,-0.00127405,0.00018491,0.00029698,-0.00045066,-0.00045052,-0.000
 40725,-0.00011313,-0.00000773,0.00004341,-0.00006611,-0.00069512,0.000
 02235,0.00106959,-0.00006574,-0.00012553,0.00008592,-0.03852254,-0.031
 99737,0.05898516,-0.00010494,-0.00000723,-0.00012383,-0.00409762,0.001
 90072,0.00883401,-0.05893287,-0.00125838,0.04822095,0.00493871,-0.0007
 5745,-0.02953194,0.00133537,-0.00022571,-0.00015234,-0.00031485,-0.000
 50832,0.00039848,0.00003544,0.00006511,0.00003229,0.00013488,0.0000986
 3,0.00010247,0.00017152,0.00275205,0.00081047,0.00075752,-0.00015266,0
 .00025648,-0.00436430,0.00101752,0.02448840,0.06367706,0.00086590,0.00
 036113,0.00009918,0.00860759,-0.00271632,-0.02961277,-0.00083617,-0.04
 986326,-0.00821901,-0.00181656,0.00007855,0.01017804,-0.00054608,0.000
 14952,-0.00072333,-0.00030612,-0.00035182,0.00001751,-0.00014784,-0.00
 020211,0.00003009,-0.00015634,0.00005911,-0.00001563,0.00117200,-0.005
 09572,-0.00230511,-0.00042210,0.00201365,0.00007158,-0.00315740,0.0007
 0666,0.02069593,-0.00416267,0.05417068,0.00036753,-0.00005339,0.000305
 63,0.00175052,0.00066312,-0.00649482,0.04828127,-0.01023978,-0.2910349
 0,0.00202865,0.00002411,-0.01813699,0.00057448,0.00047776,0.00064635,0
 .00021484,0.00006674,-0.00055909,-0.00017887,-0.00021107,-0.00006594,-
 0.00009139,0.00004962,-0.00003072,0.00004285,-0.00173536,0.00064065,-0
 .00009372,-0.00003503,0.00190225,0.00176483,0.00057784,-0.00554171,-0.
 05070385,0.00896476,0.31721668,0.00006230,0.00019150,0.00030819,0.0012
 6997,-0.00063010,0.00031918,0.00445561,-0.00235845,-0.02963199,-0.0547
 5760,0.00464756,0.04379782,-0.00870345,0.00248354,0.02497782,-0.000348
 39,0.00054725,-0.00015618,0.00007901,-0.00003031,-0.00007596,0.0002717
 1,0.00023631,-0.00025734,-0.00003734,-0.00009795,0.00029785,0.00007165
 ,-0.00027736,0.00010887,0.00125777,-0.00050326,0.00089424,-0.00446184,
 0.00212988,-0.00355610,0.06436645,-0.00001044,-0.00072647,-0.00025681,
 -0.00031084,0.00021432,0.00066092,-0.00149906,0.00057250,0.00989567,0.
 00421847,-0.05395665,-0.02129425,-0.00412020,0.00174475,0.01824561,-0.
 00032797,0.00060318,-0.00000306,0.00002327,0.00004856,0.00001975,0.000
 23473,-0.00072371,0.00010025,0.00002215,0.00013881,-0.00012761,-0.0000
 8051,0.00014874,-0.00012280,-0.00008349,0.00014453,-0.00044702,0.00168
 237,0.00050683,0.00151987,-0.00325620,0.05338545,0.00013138,-0.0001848
 0,-0.00055991,0.00016792,-0.00073160,0.00064720,0.00163623,-0.00114619
 ,-0.01813308,0.04507139,-0.01972810,-0.29113621,0.00096461,-0.00153738
 ,-0.00635247,0.00032126,-0.00017616,0.00030500,-0.00002877,0.00008020,
 0.00030555,0.00025870,-0.00010935,0.00075427,-0.00029676,0.00057172,0.
 00002362,-0.00002085,0.00005613,0.00012813,-0.00019014,-0.00031484,0.0
 0074501,-0.00374708,0.00095664,-0.00080837,-0.04625602,0.02205983,0.31
 733079,-0.00057316,-0.00029653,-0.00011210,-0.00374120,0.00026813,-0.0
 0478322,-0.00658996,0.02682405,0.00752460,-0.05849092,0.05307287,0.009
 32269,0.00511069,-0.02580688,-0.00284207,-0.00407657,-0.00170280,0.000
 11371,0.00020730,0.00005866,-0.00000465,0.00007892,0.00002306,0.000028
 94,-0.00012652,0.00008837,0.00023807,-0.00071416,0.00188189,0.00028068
 ,0.00110401,-0.00054544,0.00080757,0.00113045,-0.00066839,0.00003695,-
 0.00148664,0.00486645,0.00108975,0.06631232,-0.00010795,0.00081390,0.0
 0035711,0.00106573,0.00094271,0.00169307,0.00091746,-0.00697321,-0.002
 20122,0.05327506,-0.28630814,-0.04675929,0.00424835,-0.01622839,-0.002
 33481,-0.00364760,-0.00021563,-0.00033303,0.00005864,-0.00011643,-0.00
 003737,-0.00003080,0.00004925,-0.00008171,0.00017650,-0.00007608,-0.00
 008949,0.00028841,-0.00066811,-0.00024023,0.00035851,0.00086877,-0.000
 00321,-0.00025522,0.00026936,0.00036229,0.00060345,-0.00199456,-0.0015
 0640,-0.05709296,0.30960624,-0.00003374,-0.00034187,-0.00045081,-0.002
 70439,0.00009526,-0.00127836,-0.00386049,0.01757356,0.00348857,0.00958
 783,-0.04892804,-0.05883454,-0.00062884,0.01003231,-0.00010863,0.00188
 662,0.00110448,0.00037755,0.00000508,0.00003600,0.00011373,0.00007576,
 -0.00002140,0.00030501,-0.00023513,0.00033737,0.00007445,-0.00041161,0
 .00080756,0.00021952,0.00064778,-0.00048568,0.00055492,0.00098146,-0.0
 0018968,0.00074854,0.00695841,-0.03127113,-0.00571682,-0.01158480,0.05
 014428,0.05951954,0.00027285,-0.00003445,-0.00043544,0.00050527,-0.000
 53772,-0.00014624,-0.00288076,-0.00438051,0.00212625,-0.01789506,-0.00
 039469,-0.01871513,-0.15228375,-0.00317038,-0.12527904,-0.00487089,-0.
 00155895,-0.00615529,-0.00012644,0.00017501,0.00023621,-0.00003722,0.0
 0002032,0.00029713,-0.00005933,0.00004365,0.00007248,-0.00006429,0.000
 18497,-0.00002014,-0.00174255,0.00053487,-0.00081734,0.00027243,-0.000
 01353,-0.00005013,0.00149592,0.00081740,-0.00004954,-0.00037308,-0.000
 62499,0.00001934,0.16476239,-0.00094284,0.00024168,0.00111633,-0.00004
 631,-0.00014966,-0.00011498,-0.00174948,-0.00256204,0.00145840,-0.0122
 9618,0.00052556,-0.01408204,-0.00438064,-0.04881594,-0.00925676,0.0182
 1291,-0.00180683,0.02570798,0.00008975,-0.00007447,-0.00033825,-0.0000
 9615,0.00014154,-0.00057114,0.00004405,0.00011623,0.00001086,-0.000062
 14,0.00009678,0.00001669,-0.00106451,0.00036321,-0.00039439,0.00018237
 ,-0.00005202,-0.00003257,0.00054577,0.00127696,0.00008198,0.00037048,-
 0.00036932,0.00013810,0.00780930,0.05473865,0.00010232,0.00019872,0.00
 011103,0.00000960,0.00025502,0.00001546,0.00140494,0.00072129,0.000591
 20,0.00813137,0.00062148,0.00628826,-0.12607690,-0.00878085,-0.2025077
 7,-0.00322331,0.00053258,-0.00661567,-0.00023763,0.00008868,0.00007304
 ,-0.00029838,0.00012825,0.00002084,-0.00007222,-0.00001013,-0.00000085
 ,-0.00002656,-0.00000006,-0.00002353,0.00035934,0.00002286,0.00021679,
 0.00016215,0.00003075,0.00012844,0.00016259,-0.00021447,0.00190193,-0.
 00044194,-0.00001262,0.00008592,0.13628539,0.00508315,0.21743585,0.000
 18856,0.00228694,-0.00080666,0.00054695,0.00000791,0.00004567,0.000733
 37,-0.00034034,0.00102141,-0.01173484,0.00913597,0.02048242,-0.1104045
 8,0.05009041,0.09394628,-0.00502186,0.00461909,0.00638226,-0.00071429,
 0.00028575,0.00041313,0.00007180,-0.00008072,0.00002025,-0.00006431,-0
 .00006230,0.00002619,-0.00003717,0.00007312,-0.00005099,-0.00023542,-0
 .00005267,-0.00039250,0.00006533,0.00003788,-0.00058235,-0.00365823,-0
 .00227860,0.00106402,0.00183425,0.00041579,-0.00056222,0.01136522,-0.0
 0933080,-0.01594187,0.11655568,-0.00034217,-0.00563501,0.00244623,-0.0
 0048417,-0.00019091,-0.00017940,0.00056996,-0.00021856,0.00062356,-0.0
 1059974,0.00509156,0.01674852,0.05130737,-0.09033911,-0.08326909,0.016
 48186,-0.01234408,-0.02257002,0.00188387,-0.00066439,-0.00081250,-0.00
 027683,0.00014838,-0.00005585,0.00018486,0.00009691,0.00000086,0.00007
 278,0.00009408,0.00005248,0.00003201,0.00003422,-0.00012622,0.00015355
 ,0.00003962,-0.00027466,-0.00386383,-0.00128601,0.00133670,0.00026808,
 0.00178722,0.00041167,0.00014333,-0.00068708,-0.00110103,-0.05491725,0
 .10255161,-0.00068063,0.00141875,0.00059538,0.00014592,0.00020860,0.00
 001523,0.00003843,0.00022067,0.00010950,0.00289046,-0.00153528,-0.0066
 4288,0.09486858,-0.08336690,-0.20285008,-0.00606654,0.00540651,0.00627
 524,-0.00026974,0.00023500,0.00021639,-0.00011046,0.00012285,0.0001286
 5,0.00002126,-0.00001600,-0.00002362,0.00005142,-0.00005187,-0.0000008
 5,0.00024330,-0.00007335,0.00007309,0.00031512,-0.00007862,0.00002112,
 0.00201159,0.00132803,0.00066108,-0.00029371,0.00043171,0.00107325,0.0
 1197288,-0.01050996,-0.01945677,-0.10522468,0.08661102,0.21781856,0.00
 493254,-0.00094145,0.02953187,0.00133612,-0.00022632,0.00014987,-0.000
 31443,-0.00050552,-0.00040159,-0.00010486,-0.00000815,0.00012342,-0.00
 409340,0.00195408,-0.00882034,-0.05889423,-0.00096419,-0.04813195,0.00
 113061,-0.00024865,-0.00098316,-0.00446401,0.00165956,0.00375672,0.000
 27224,0.00018333,-0.00016114,0.00006506,0.00015528,-0.00031436,0.00007
 146,0.00001310,0.00007291,-0.00031382,-0.00053994,0.00026664,0.0001349
 1,0.00009929,-0.00010178,0.00003540,0.00006521,-0.00003185,0.00017162,
 0.00275644,-0.00079378,0.00075774,-0.00015131,-0.00025741,0.06362966,-
 0.00180166,0.00014075,-0.01006514,-0.00054244,0.00014786,0.00071994,-0
 .00030407,-0.00035118,-0.00001636,0.00086806,0.00036058,-0.00009795,0.
 00860391,-0.00289141,0.02963634,-0.00054053,-0.04998632,0.00971162,-0.
 00066812,0.00027029,0.00018681,0.00210829,0.00052203,-0.00094791,-0.00
 001378,-0.00005201,-0.00003181,0.00003437,0.00003745,0.00007872,-0.000
 04060,0.00005629,-0.00003027,-0.00053831,-0.00013027,-0.00007660,-0.00
 015714,0.00005903,0.00001624,-0.00014896,-0.00020329,-0.00003079,0.001
 17198,-0.00511963,0.00227042,-0.00042313,0.00201424,-0.00007211,-0.004
 47065,0.05428711,-0.00203355,0.00008930,-0.01818429,-0.00057745,-0.000
 48072,0.00064764,-0.00021679,-0.00006582,-0.00055988,-0.00036201,0.000
 05379,0.00030523,-0.00169628,-0.00064104,-0.00631850,-0.04819253,0.011
 73041,-0.29097423,-0.00004068,-0.00036541,0.00074672,0.00356773,-0.001
 51077,-0.00082154,0.00005040,0.00003166,0.00012828,0.00058246,0.000274
 80,0.00002342,0.00007185,0.00004622,0.00030551,-0.00027028,0.00007098,
 0.00075747,0.00009053,-0.00004893,-0.00003095,0.00017793,0.00021023,-0
 .00006487,-0.00003585,0.00170098,0.00066453,0.00009067,0.00003585,0.00
 190153,0.05057730,-0.01059413,0.31715799,-0.02009319,-0.01680382,-0.00
 728789,-0.00265453,0.00247362,0.00483476,0.00013084,0.00081591,0.00030
 517,-0.00008253,0.00160422,-0.00029090,0.00768653,0.00762100,0.0008376
 2,-0.19345191,-0.12387893,-0.03558689,0.00110434,0.00036261,-0.0006456
 1,0.00125838,-0.00008491,0.00018942,-0.00174263,-0.00106248,-0.0003662
 4,-0.00023531,0.00003354,-0.00024313,0.00003196,-0.00017160,-0.0000188
 9,0.00007150,-0.00004010,-0.00007215,-0.00001180,0.00000318,-0.0000143
 2,0.00035887,0.00028640,-0.00010920,0.00148768,-0.00004203,0.00049489,
 -0.00024819,-0.00046238,0.00034421,-0.00435259,-0.00313722,-0.00178346
 ,0.21074259,0.00907883,0.00652963,0.00279207,0.00167769,-0.00013176,-0
 .00155273,0.00062862,0.00010984,0.00021564,0.00354528,-0.00421227,-0.0
 0020355,-0.02245937,-0.01879137,-0.00355210,-0.12407874,-0.15142164,-0
 .03139430,-0.00054067,0.00086548,0.00048759,-0.00049771,0.00013985,0.0
 0031113,0.00052977,0.00036086,-0.00002187,-0.00005514,0.00003297,0.000
 07307,-0.00017169,0.00005885,-0.00003229,0.00001364,0.00005639,-0.0000
 4765,-0.00021066,-0.00015626,0.00027539,-0.00146008,-0.00118429,0.0005
 8801,-0.00018562,0.00213637,0.00016596,0.00053296,-0.00049267,-0.00027
 906,0.00116991,0.00083846,-0.00053741,0.13248299,0.16526157,0.01376388
 ,0.01167335,0.00348707,0.00221269,-0.00156602,-0.00129151,-0.00018109,
 -0.00029354,-0.00045122,-0.00082973,0.00201696,0.00038038,0.00655620,0
 .00757958,-0.00011878,-0.03711429,-0.03295967,-0.05874795,-0.00081055,
 0.00000515,0.00055752,-0.00089679,0.00044334,0.00074994,0.00082015,0.0
 0039497,0.00021901,0.00039190,0.00012586,0.00007434,0.00001782,0.00003
 192,0.00011382,-0.00007297,0.00002868,0.00030542,0.00000651,-0.0000438
 4,-0.00006475,0.00044161,0.00040070,-0.00010697,0.00069448,-0.00001438
 ,0.00107131,0.00006897,0.00012185,0.00008517,-0.02448139,-0.02065703,-
 0.00568409,0.03941260,0.03271212,0.05942129\\-0.00001664,-0.00000021,-
 0.00001058,0.00000410,0.00000796,0.00000767,0.00000599,0.00001782,0.00
 000937,-0.00001073,-0.00001881,-0.00000292,0.00001113,-0.00000596,0.00
 000040,0.00000445,-0.00000754,-0.00000453,-0.00000350,0.00000352,0.000
 00422,0.00000421,-0.00000017,0.00000074,0.00000200,0.00000622,-0.00000
 053,-0.00000208,-0.00000031,-0.00000192,0.00000563,-0.00000738,-0.0000
 0142,0.00000376,-0.00000037,-0.00000325,0.00000247,-0.00000197,0.00000
 275,-0.00000006,0.00000201,0.00000080,-0.00000816,0.00000323,-0.000002
 69,0.00000049,-0.00000362,-0.00000151,0.00000147,0.00000114,0.00000028
 ,-0.00000453,0.00000444,0.00000309\\\@


 DON'T WORRY CHARLIE BROWN...WE LEARN MORE FROM LOSING  THAN WE DO FROM WINNING.
 THEN THAT MAKES ME THE SMARTEST PERSON IN THE WORLD...
 CHARLES SCHULZ 'PEANUTS'
 Job cpu time:       0 days  0 hours  6 minutes  6.4 seconds.
 File lengths (MBytes):  RWF=     60 Int=      0 D2E=      0 Chk=      7 Scr=      1
 Normal termination of Gaussian 09 at Tue Jan 26 12:18:46 2016.
