 Entering Gaussian System, Link 0=g09
 Initial command:
 /public/apps/gaussian//g09/l1.exe "/tmp/580849.pbs/Gau-71665.inp" -scrdir="/tmp/580849.pbs/"
 Entering Link 1 = /public/apps/gaussian//g09/l1.exe PID=     71667.
  
 Copyright (c) 1988,1990,1992,1993,1995,1998,2003,2009,2013,
            Gaussian, Inc.  All Rights Reserved.
  
 This is part of the Gaussian(R) 09 program.  It is based on
 the Gaussian(R) 03 system (copyright 2003, Gaussian, Inc.),
 the Gaussian(R) 98 system (copyright 1998, Gaussian, Inc.),
 the Gaussian(R) 94 system (copyright 1995, Gaussian, Inc.),
 the Gaussian 92(TM) system (copyright 1992, Gaussian, Inc.),
 the Gaussian 90(TM) system (copyright 1990, Gaussian, Inc.),
 the Gaussian 88(TM) system (copyright 1988, Gaussian, Inc.),
 the Gaussian 86(TM) system (copyright 1986, Carnegie Mellon
 University), and the Gaussian 82(TM) system (copyright 1983,
 Carnegie Mellon University). Gaussian is a federally registered
 trademark of Gaussian, Inc.
  
 This software contains proprietary and confidential information,
 including trade secrets, belonging to Gaussian, Inc.
  
 This software is provided under written license and may be
 used, copied, transmitted, or stored only in accord with that
 written license.
  
 The following legend is applicable only to US Government
 contracts under FAR:
  
                    RESTRICTED RIGHTS LEGEND
  
 Use, reproduction and disclosure by the US Government is
 subject to restrictions as set forth in subparagraphs (a)
 and (c) of the Commercial Computer Software - Restricted
 Rights clause in FAR 52.227-19.
  
 Gaussian, Inc.
 340 Quinnipiac St., Bldg. 40, Wallingford CT 06492
  
  
 ---------------------------------------------------------------
 Warning -- This program may not be used in any manner that
 competes with the business of Gaussian, Inc. or will provide
 assistance to any competitor of Gaussian, Inc.  The licensee
 of this program is prohibited from giving any competitor of
 Gaussian, Inc. access to this program.  By using this program,
 the user acknowledges that Gaussian, Inc. is engaged in the
 business of creating and licensing software in the field of
 computational chemistry and represents and warrants to the
 licensee that it is not a competitor of Gaussian, Inc. and that
 it will not use this program in any manner prohibited above.
 ---------------------------------------------------------------
  

 Cite this work as:
 Gaussian 09, Revision D.01,
 M. J. Frisch, G. W. Trucks, H. B. Schlegel, G. E. Scuseria, 
 M. A. Robb, J. R. Cheeseman, G. Scalmani, V. Barone, B. Mennucci, 
 G. A. Petersson, H. Nakatsuji, M. Caricato, X. Li, H. P. Hratchian, 
 A. F. Izmaylov, J. Bloino, G. Zheng, J. L. Sonnenberg, M. Hada, 
 M. Ehara, K. Toyota, R. Fukuda, J. Hasegawa, M. Ishida, T. Nakajima, 
 Y. Honda, O. Kitao, H. Nakai, T. Vreven, J. A. Montgomery, Jr., 
 J. E. Peralta, F. Ogliaro, M. Bearpark, J. J. Heyd, E. Brothers, 
 K. N. Kudin, V. N. Staroverov, T. Keith, R. Kobayashi, J. Normand, 
 K. Raghavachari, A. Rendell, J. C. Burant, S. S. Iyengar, J. Tomasi, 
 M. Cossi, N. Rega, J. M. Millam, M. Klene, J. E. Knox, J. B. Cross, 
 V. Bakken, C. Adamo, J. Jaramillo, R. Gomperts, R. E. Stratmann, 
 O. Yazyev, A. J. Austin, R. Cammi, C. Pomelli, J. W. Ochterski, 
 R. L. Martin, K. Morokuma, V. G. Zakrzewski, G. A. Voth, 
 P. Salvador, J. J. Dannenberg, S. Dapprich, A. D. Daniels, 
 O. Farkas, J. B. Foresman, J. V. Ortiz, J. Cioslowski, 
 and D. J. Fox, Gaussian, Inc., Wallingford CT, 2013.
 
 ******************************************
 Gaussian 09:  ES64L-G09RevD.01 24-Apr-2013
                21-Jul-2016 
 ******************************************
 %chk=1.chk
 %mem=15GB
 %nproc=8
 Will use up to    8 processors via shared memory.
 -------------------------------------------------------------
 #P b3lyp/gen opt freq gfinput scf=(xqc,maxcon=128,maxcyc=128)
 -------------------------------------------------------------
 1/14=-1,18=20,19=15,26=3,38=1/1,3;
 2/9=110,12=2,17=6,18=5,40=1/2;
 3/5=7,11=2,16=1,24=10,25=1,30=1,71=1,74=-5/1,2,3;
 4//1;
 5/5=2,7=128,8=3,13=1,38=5,85=128/2,8;
 6/7=2,8=2,9=2,10=2,28=1/1;
 7//1,2,3,16;
 1/14=-1,18=20,19=15,26=3/3(2);
 2/9=110/2;
 99//99;
 2/9=110/2;
 3/5=7,6=1,11=2,16=1,25=1,30=1,71=1,74=-5,82=7/1,2,3;
 4/5=5,16=3,69=1/1;
 5/5=2,7=128,8=3,13=1,38=5,85=128/2,8;
 7//1,2,3,16;
 1/14=-1,18=20,19=15,26=3/3(-5);
 2/9=110/2;
 6/7=2,8=2,9=2,10=2,19=2,28=1/1;
 99/9=1/99;
 Leave Link    1 at Thu Jul 21 12:01:40 2016, MaxMem=  2013265920 cpu:         0.7
 (Enter /public/apps/gaussian//g09/l101.exe)
 -------------------------
 n_butyl_cyclohexane_2.car
 -------------------------
 Symbolic Z-matrix:
 Charge =  0 Multiplicity = 1
 C                    -1.229     4.176    -5.194 
 C                    -0.003     3.708    -4.386 
 C                     0.895     2.728    -5.146 
 C                     2.16      2.404    -4.35 
 C                     3.054     1.427    -5.096 
 C                    -2.188     3.021    -5.528 
 C                    -3.44      3.508    -6.255 
 C                    -4.156     4.605    -5.477 
 C                    -3.216     5.761    -5.154 
 C                    -1.969     5.279    -4.417 
 H                     0.593     4.588    -4.11 
 H                     1.172     3.158    -6.116 
 H                     0.352     1.797    -5.345 
 H                     2.721     3.325    -4.152 
 H                     3.952     1.211    -4.509 
 H                     3.368     1.84     -6.06 
 H                     2.533     0.482    -5.281 
 H                     1.888     1.974    -3.378 
 H                    -0.332     3.246    -3.446 
 H                    -0.872     4.61     -6.138 
 H                    -2.482     2.504    -4.606 
 H                    -1.689     2.28     -6.163 
 H                    -4.123     2.665    -6.415 
 H                    -3.162     3.885    -7.246 
 H                    -4.56      4.19     -4.545 
 H                    -5.009     4.974    -6.058 
 H                    -3.742     6.503    -4.542 
 H                    -2.921     6.263    -6.083 
 H                    -2.258     4.906    -3.426 
 H                    -1.3       6.132    -4.252 
 
 NAtoms=     30 NQM=       30 NQMF=       0 NMMI=      0 NMMIF=      0
                NMic=       0 NMicF=      0.
                    Isotopes and Nuclear Properties:
 (Nuclear quadrupole moments (NQMom) in fm**2, nuclear magnetic moments (NMagM)
  in nuclear magnetons)

  Atom         1           2           3           4           5           6           7           8           9          10
 IAtWgt=          12          12          12          12          12          12          12          12          12          12
 AtmWgt=  12.0000000  12.0000000  12.0000000  12.0000000  12.0000000  12.0000000  12.0000000  12.0000000  12.0000000  12.0000000
 NucSpn=           0           0           0           0           0           0           0           0           0           0
 AtZEff=   0.0000000   0.0000000   0.0000000   0.0000000   0.0000000   0.0000000   0.0000000   0.0000000   0.0000000   0.0000000
 NQMom=    0.0000000   0.0000000   0.0000000   0.0000000   0.0000000   0.0000000   0.0000000   0.0000000   0.0000000   0.0000000
 NMagM=    0.0000000   0.0000000   0.0000000   0.0000000   0.0000000   0.0000000   0.0000000   0.0000000   0.0000000   0.0000000
 AtZNuc=   6.0000000   6.0000000   6.0000000   6.0000000   6.0000000   6.0000000   6.0000000   6.0000000   6.0000000   6.0000000

  Atom        11          12          13          14          15          16          17          18          19          20
 IAtWgt=           1           1           1           1           1           1           1           1           1           1
 AtmWgt=   1.0078250   1.0078250   1.0078250   1.0078250   1.0078250   1.0078250   1.0078250   1.0078250   1.0078250   1.0078250
 NucSpn=           1           1           1           1           1           1           1           1           1           1
 AtZEff=   0.0000000   0.0000000   0.0000000   0.0000000   0.0000000   0.0000000   0.0000000   0.0000000   0.0000000   0.0000000
 NQMom=    0.0000000   0.0000000   0.0000000   0.0000000   0.0000000   0.0000000   0.0000000   0.0000000   0.0000000   0.0000000
 NMagM=    2.7928460   2.7928460   2.7928460   2.7928460   2.7928460   2.7928460   2.7928460   2.7928460   2.7928460   2.7928460
 AtZNuc=   1.0000000   1.0000000   1.0000000   1.0000000   1.0000000   1.0000000   1.0000000   1.0000000   1.0000000   1.0000000

  Atom        21          22          23          24          25          26          27          28          29          30
 IAtWgt=           1           1           1           1           1           1           1           1           1           1
 AtmWgt=   1.0078250   1.0078250   1.0078250   1.0078250   1.0078250   1.0078250   1.0078250   1.0078250   1.0078250   1.0078250
 NucSpn=           1           1           1           1           1           1           1           1           1           1
 AtZEff=   0.0000000   0.0000000   0.0000000   0.0000000   0.0000000   0.0000000   0.0000000   0.0000000   0.0000000   0.0000000
 NQMom=    0.0000000   0.0000000   0.0000000   0.0000000   0.0000000   0.0000000   0.0000000   0.0000000   0.0000000   0.0000000
 NMagM=    2.7928460   2.7928460   2.7928460   2.7928460   2.7928460   2.7928460   2.7928460   2.7928460   2.7928460   2.7928460
 AtZNuc=   1.0000000   1.0000000   1.0000000   1.0000000   1.0000000   1.0000000   1.0000000   1.0000000   1.0000000   1.0000000
 Leave Link  101 at Thu Jul 21 12:01:40 2016, MaxMem=  2013265920 cpu:         2.2
 (Enter /public/apps/gaussian//g09/l103.exe)

 GradGradGradGradGradGradGradGradGradGradGradGradGradGradGradGradGradGrad
 Berny optimization.
 Initialization pass.
                           ----------------------------
                           !    Initial Parameters    !
                           ! (Angstroms and Degrees)  !
 --------------------------                            --------------------------
 ! Name  Definition              Value          Derivative Info.                !
 --------------------------------------------------------------------------------
 ! R1    R(1,2)                  1.5411         estimate D2E/DX2                !
 ! R2    R(1,6)                  1.5379         estimate D2E/DX2                !
 ! R3    R(1,10)                 1.5388         estimate D2E/DX2                !
 ! R4    R(1,20)                 1.0986         estimate D2E/DX2                !
 ! R5    R(2,3)                  1.5311         estimate D2E/DX2                !
 ! R6    R(2,11)                 1.0981         estimate D2E/DX2                !
 ! R7    R(2,19)                 1.0979         estimate D2E/DX2                !
 ! R8    R(3,4)                  1.5293         estimate D2E/DX2                !
 ! R9    R(3,12)                 1.0966         estimate D2E/DX2                !
 ! R10   R(3,13)                 1.096          estimate D2E/DX2                !
 ! R11   R(4,5)                  1.52           estimate D2E/DX2                !
 ! R12   R(4,14)                 1.0964         estimate D2E/DX2                !
 ! R13   R(4,18)                 1.0971         estimate D2E/DX2                !
 ! R14   R(5,15)                 1.0944         estimate D2E/DX2                !
 ! R15   R(5,16)                 1.0947         estimate D2E/DX2                !
 ! R16   R(5,17)                 1.0948         estimate D2E/DX2                !
 ! R17   R(6,7)                  1.5275         estimate D2E/DX2                !
 ! R18   R(6,21)                 1.0972         estimate D2E/DX2                !
 ! R19   R(6,22)                 1.096          estimate D2E/DX2                !
 ! R20   R(7,8)                  1.5236         estimate D2E/DX2                !
 ! R21   R(7,23)                 1.0967         estimate D2E/DX2                !
 ! R22   R(7,24)                 1.0961         estimate D2E/DX2                !
 ! R23   R(8,9)                  1.5246         estimate D2E/DX2                !
 ! R24   R(8,25)                 1.0973         estimate D2E/DX2                !
 ! R25   R(8,26)                 1.0961         estimate D2E/DX2                !
 ! R26   R(9,10)                 1.5266         estimate D2E/DX2                !
 ! R27   R(9,27)                 1.0963         estimate D2E/DX2                !
 ! R28   R(9,28)                 1.0964         estimate D2E/DX2                !
 ! R29   R(10,29)                1.0976         estimate D2E/DX2                !
 ! R30   R(10,30)                1.0965         estimate D2E/DX2                !
 ! A1    A(2,1,6)              112.4494         estimate D2E/DX2                !
 ! A2    A(2,1,10)             109.6031         estimate D2E/DX2                !
 ! A3    A(2,1,20)             108.178          estimate D2E/DX2                !
 ! A4    A(6,1,10)             110.3714         estimate D2E/DX2                !
 ! A5    A(6,1,20)             108.222          estimate D2E/DX2                !
 ! A6    A(10,1,20)            107.8774         estimate D2E/DX2                !
 ! A7    A(1,2,3)              113.622          estimate D2E/DX2                !
 ! A8    A(1,2,11)             108.6752         estimate D2E/DX2                !
 ! A9    A(1,2,19)             109.7738         estimate D2E/DX2                !
 ! A10   A(3,2,11)             108.6243         estimate D2E/DX2                !
 ! A11   A(3,2,19)             109.354          estimate D2E/DX2                !
 ! A12   A(11,2,19)            106.5403         estimate D2E/DX2                !
 ! A13   A(2,3,4)              111.2458         estimate D2E/DX2                !
 ! A14   A(2,3,12)             109.6473         estimate D2E/DX2                !
 ! A15   A(2,3,13)             110.0746         estimate D2E/DX2                !
 ! A16   A(4,3,12)             109.5444         estimate D2E/DX2                !
 ! A17   A(4,3,13)             108.9263         estimate D2E/DX2                !
 ! A18   A(12,3,13)            107.3152         estimate D2E/DX2                !
 ! A19   A(3,4,5)              111.5453         estimate D2E/DX2                !
 ! A20   A(3,4,14)             109.8318         estimate D2E/DX2                !
 ! A21   A(3,4,18)             109.8219         estimate D2E/DX2                !
 ! A22   A(5,4,14)             109.1244         estimate D2E/DX2                !
 ! A23   A(5,4,18)             109.1913         estimate D2E/DX2                !
 ! A24   A(14,4,18)            107.2226         estimate D2E/DX2                !
 ! A25   A(4,5,15)             110.2579         estimate D2E/DX2                !
 ! A26   A(4,5,16)             111.0017         estimate D2E/DX2                !
 ! A27   A(4,5,17)             110.968          estimate D2E/DX2                !
 ! A28   A(15,5,16)            108.1453         estimate D2E/DX2                !
 ! A29   A(15,5,17)            108.1047         estimate D2E/DX2                !
 ! A30   A(16,5,17)            108.2595         estimate D2E/DX2                !
 ! A31   A(1,6,7)              112.0259         estimate D2E/DX2                !
 ! A32   A(1,6,21)             109.7836         estimate D2E/DX2                !
 ! A33   A(1,6,22)             110.4665         estimate D2E/DX2                !
 ! A34   A(7,6,21)             109.3024         estimate D2E/DX2                !
 ! A35   A(7,6,22)             108.2383         estimate D2E/DX2                !
 ! A36   A(21,6,22)            106.8748         estimate D2E/DX2                !
 ! A37   A(6,7,8)              111.821          estimate D2E/DX2                !
 ! A38   A(6,7,23)             109.562          estimate D2E/DX2                !
 ! A39   A(6,7,24)             109.3948         estimate D2E/DX2                !
 ! A40   A(8,7,23)             109.5895         estimate D2E/DX2                !
 ! A41   A(8,7,24)             109.4636         estimate D2E/DX2                !
 ! A42   A(23,7,24)            106.8834         estimate D2E/DX2                !
 ! A43   A(7,8,9)              111.3695         estimate D2E/DX2                !
 ! A44   A(7,8,25)             109.5376         estimate D2E/DX2                !
 ! A45   A(7,8,26)             109.7216         estimate D2E/DX2                !
 ! A46   A(9,8,25)             109.5015         estimate D2E/DX2                !
 ! A47   A(9,8,26)             109.6867         estimate D2E/DX2                !
 ! A48   A(25,8,26)            106.9193         estimate D2E/DX2                !
 ! A49   A(8,9,10)             111.5013         estimate D2E/DX2                !
 ! A50   A(8,9,27)             109.6126         estimate D2E/DX2                !
 ! A51   A(8,9,28)             109.4849         estimate D2E/DX2                !
 ! A52   A(10,9,27)            109.641          estimate D2E/DX2                !
 ! A53   A(10,9,28)            109.5023         estimate D2E/DX2                !
 ! A54   A(27,9,28)            106.9913         estimate D2E/DX2                !
 ! A55   A(1,10,9)             112.0466         estimate D2E/DX2                !
 ! A56   A(1,10,29)            109.8115         estimate D2E/DX2                !
 ! A57   A(1,10,30)            109.8877         estimate D2E/DX2                !
 ! A58   A(9,10,29)            109.1537         estimate D2E/DX2                !
 ! A59   A(9,10,30)            108.9895         estimate D2E/DX2                !
 ! A60   A(29,10,30)           106.8063         estimate D2E/DX2                !
 ! D1    D(6,1,2,3)             63.6553         estimate D2E/DX2                !
 ! D2    D(6,1,2,11)          -175.2962         estimate D2E/DX2                !
 ! D3    D(6,1,2,19)           -59.1378         estimate D2E/DX2                !
 ! D4    D(10,1,2,3)          -173.1851         estimate D2E/DX2                !
 ! D5    D(10,1,2,11)          -52.1366         estimate D2E/DX2                !
 ! D6    D(10,1,2,19)           64.0218         estimate D2E/DX2                !
 ! D7    D(20,1,2,3)           -55.8026         estimate D2E/DX2                !
 ! D8    D(20,1,2,11)           65.2459         estimate D2E/DX2                !
 ! D9    D(20,1,2,19)         -178.5957         estimate D2E/DX2                !
 ! D10   D(2,1,6,7)            176.5561         estimate D2E/DX2                !
 ! D11   D(2,1,6,21)            54.924          estimate D2E/DX2                !
 ! D12   D(2,1,6,22)           -62.6904         estimate D2E/DX2                !
 ! D13   D(10,1,6,7)            53.8277         estimate D2E/DX2                !
 ! D14   D(10,1,6,21)          -67.8043         estimate D2E/DX2                !
 ! D15   D(10,1,6,22)          174.5812         estimate D2E/DX2                !
 ! D16   D(20,1,6,7)           -64.0116         estimate D2E/DX2                !
 ! D17   D(20,1,6,21)          174.3563         estimate D2E/DX2                !
 ! D18   D(20,1,6,22)           56.7418         estimate D2E/DX2                !
 ! D19   D(2,1,10,9)          -178.6211         estimate D2E/DX2                !
 ! D20   D(2,1,10,29)          -57.1446         estimate D2E/DX2                !
 ! D21   D(2,1,10,30)           60.0581         estimate D2E/DX2                !
 ! D22   D(6,1,10,9)           -54.2429         estimate D2E/DX2                !
 ! D23   D(6,1,10,29)           67.2336         estimate D2E/DX2                !
 ! D24   D(6,1,10,30)         -175.5637         estimate D2E/DX2                !
 ! D25   D(20,1,10,9)           63.8083         estimate D2E/DX2                !
 ! D26   D(20,1,10,29)        -174.7152         estimate D2E/DX2                !
 ! D27   D(20,1,10,30)         -57.5126         estimate D2E/DX2                !
 ! D28   D(1,2,3,4)            174.548          estimate D2E/DX2                !
 ! D29   D(1,2,3,12)            53.2207         estimate D2E/DX2                !
 ! D30   D(1,2,3,13)           -64.6151         estimate D2E/DX2                !
 ! D31   D(11,2,3,4)            53.4709         estimate D2E/DX2                !
 ! D32   D(11,2,3,12)          -67.8564         estimate D2E/DX2                !
 ! D33   D(11,2,3,13)          174.3079         estimate D2E/DX2                !
 ! D34   D(19,2,3,4)           -62.4284         estimate D2E/DX2                !
 ! D35   D(19,2,3,12)          176.2442         estimate D2E/DX2                !
 ! D36   D(19,2,3,13)           58.4085         estimate D2E/DX2                !
 ! D37   D(2,3,4,5)            179.7705         estimate D2E/DX2                !
 ! D38   D(2,3,4,14)           -59.1096         estimate D2E/DX2                !
 ! D39   D(2,3,4,18)            58.573          estimate D2E/DX2                !
 ! D40   D(12,3,4,5)           -58.8421         estimate D2E/DX2                !
 ! D41   D(12,3,4,14)           62.2778         estimate D2E/DX2                !
 ! D42   D(12,3,4,18)          179.9604         estimate D2E/DX2                !
 ! D43   D(13,3,4,5)            58.2614         estimate D2E/DX2                !
 ! D44   D(13,3,4,14)          179.3813         estimate D2E/DX2                !
 ! D45   D(13,3,4,18)          -62.9361         estimate D2E/DX2                !
 ! D46   D(3,4,5,15)           179.9375         estimate D2E/DX2                !
 ! D47   D(3,4,5,16)            60.1179         estimate D2E/DX2                !
 ! D48   D(3,4,5,17)           -60.3154         estimate D2E/DX2                !
 ! D49   D(14,4,5,15)           58.4065         estimate D2E/DX2                !
 ! D50   D(14,4,5,16)          -61.4131         estimate D2E/DX2                !
 ! D51   D(14,4,5,17)          178.1536         estimate D2E/DX2                !
 ! D52   D(18,4,5,15)          -58.4987         estimate D2E/DX2                !
 ! D53   D(18,4,5,16)         -178.3183         estimate D2E/DX2                !
 ! D54   D(18,4,5,17)           61.2484         estimate D2E/DX2                !
 ! D55   D(1,6,7,8)            -54.6439         estimate D2E/DX2                !
 ! D56   D(1,6,7,23)          -176.3495         estimate D2E/DX2                !
 ! D57   D(1,6,7,24)            66.7877         estimate D2E/DX2                !
 ! D58   D(21,6,7,8)            67.264          estimate D2E/DX2                !
 ! D59   D(21,6,7,23)          -54.4416         estimate D2E/DX2                !
 ! D60   D(21,6,7,24)         -171.3044         estimate D2E/DX2                !
 ! D61   D(22,6,7,8)          -176.6799         estimate D2E/DX2                !
 ! D62   D(22,6,7,23)           61.6146         estimate D2E/DX2                !
 ! D63   D(22,6,7,24)          -55.2482         estimate D2E/DX2                !
 ! D64   D(6,7,8,9)             54.6731         estimate D2E/DX2                !
 ! D65   D(6,7,8,25)           -66.6073         estimate D2E/DX2                !
 ! D66   D(6,7,8,26)           176.3114         estimate D2E/DX2                !
 ! D67   D(23,7,8,9)           176.3628         estimate D2E/DX2                !
 ! D68   D(23,7,8,25)           55.0824         estimate D2E/DX2                !
 ! D69   D(23,7,8,26)          -61.9989         estimate D2E/DX2                !
 ! D70   D(24,7,8,9)           -66.7188         estimate D2E/DX2                !
 ! D71   D(24,7,8,25)          172.0008         estimate D2E/DX2                !
 ! D72   D(24,7,8,26)           54.9195         estimate D2E/DX2                !
 ! D73   D(7,8,9,10)           -54.8979         estimate D2E/DX2                !
 ! D74   D(7,8,9,27)          -176.4914         estimate D2E/DX2                !
 ! D75   D(7,8,9,28)            66.4342         estimate D2E/DX2                !
 ! D76   D(25,8,9,10)           66.4035         estimate D2E/DX2                !
 ! D77   D(25,8,9,27)          -55.19           estimate D2E/DX2                !
 ! D78   D(25,8,9,28)         -172.2644         estimate D2E/DX2                !
 ! D79   D(26,8,9,10)         -176.5564         estimate D2E/DX2                !
 ! D80   D(26,8,9,27)           61.8501         estimate D2E/DX2                !
 ! D81   D(26,8,9,28)          -55.2243         estimate D2E/DX2                !
 ! D82   D(8,9,10,1)            55.2494         estimate D2E/DX2                !
 ! D83   D(8,9,10,29)          -66.6044         estimate D2E/DX2                !
 ! D84   D(8,9,10,30)          177.086          estimate D2E/DX2                !
 ! D85   D(27,9,10,1)          176.8264         estimate D2E/DX2                !
 ! D86   D(27,9,10,29)          54.9726         estimate D2E/DX2                !
 ! D87   D(27,9,10,30)         -61.337          estimate D2E/DX2                !
 ! D88   D(28,9,10,1)          -66.0726         estimate D2E/DX2                !
 ! D89   D(28,9,10,29)         172.0737         estimate D2E/DX2                !
 ! D90   D(28,9,10,30)          55.764          estimate D2E/DX2                !
 --------------------------------------------------------------------------------
 Trust Radius=3.00D-01 FncErr=1.00D-07 GrdErr=1.00D-06
 Number of steps in this run=    180 maximum allowed number of steps=    180.
 GradGradGradGradGradGradGradGradGradGradGradGradGradGradGradGradGradGrad

 Leave Link  103 at Thu Jul 21 12:01:40 2016, MaxMem=  2013265920 cpu:         0.1
 (Enter /public/apps/gaussian//g09/l202.exe)
                          Input orientation:                          
 ---------------------------------------------------------------------
 Center     Atomic      Atomic             Coordinates (Angstroms)
 Number     Number       Type             X           Y           Z
 ---------------------------------------------------------------------
      1          6           0       -1.229000    4.176000   -5.194000
      2          6           0       -0.003000    3.708000   -4.386000
      3          6           0        0.895000    2.728000   -5.146000
      4          6           0        2.160000    2.404000   -4.350000
      5          6           0        3.054000    1.427000   -5.096000
      6          6           0       -2.188000    3.021000   -5.528000
      7          6           0       -3.440000    3.508000   -6.255000
      8          6           0       -4.156000    4.605000   -5.477000
      9          6           0       -3.216000    5.761000   -5.154000
     10          6           0       -1.969000    5.279000   -4.417000
     11          1           0        0.593000    4.588000   -4.110000
     12          1           0        1.172000    3.158000   -6.116000
     13          1           0        0.352000    1.797000   -5.345000
     14          1           0        2.721000    3.325000   -4.152000
     15          1           0        3.952000    1.211000   -4.509000
     16          1           0        3.368000    1.840000   -6.060000
     17          1           0        2.533000    0.482000   -5.281000
     18          1           0        1.888000    1.974000   -3.378000
     19          1           0       -0.332000    3.246000   -3.446000
     20          1           0       -0.872000    4.610000   -6.138000
     21          1           0       -2.482000    2.504000   -4.606000
     22          1           0       -1.689000    2.280000   -6.163000
     23          1           0       -4.123000    2.665000   -6.415000
     24          1           0       -3.162000    3.885000   -7.246000
     25          1           0       -4.560000    4.190000   -4.545000
     26          1           0       -5.009000    4.974000   -6.058000
     27          1           0       -3.742000    6.503000   -4.542000
     28          1           0       -2.921000    6.263000   -6.083000
     29          1           0       -2.258000    4.906000   -3.426000
     30          1           0       -1.300000    6.132000   -4.252000
 ---------------------------------------------------------------------
                    Distance matrix (angstroms):
                    1          2          3          4          5
     1  C    0.000000
     2  C    1.541092   0.000000
     3  C    2.571067   1.531145   0.000000
     4  C    3.916330   2.525922   1.529319   0.000000
     5  C    5.090255   3.879731   2.521187   1.519961   0.000000
     6  C    1.537941   2.559367   3.120362   4.546810   5.496001
     7  C    2.541745   3.917414   4.542082   6.017295   6.917071
     8  C    2.971777   4.386604   5.398638   6.782801   7.888532
     9  C    2.542045   3.889473   5.108764   6.388837   7.622324
    10  C    1.538811   2.516775   3.904041   5.031775   6.366276
    11  H    2.159742   1.098086   2.150372   2.698693   4.125608
    12  H    2.766082   2.162412   1.096599   2.159494   2.752941
    13  H    2.860420   2.167401   1.095998   2.151125   2.738559
    14  H    4.172825   2.760728   2.163035   1.096433   2.145793
    15  H    6.008595   4.678906   3.471643   2.158656   1.094362
    16  H    5.228696   4.201826   2.782026   2.168285   1.094742
    17  H    5.273125   4.199928   2.783125   2.167942   1.094847
    18  H    4.226387   2.756574   2.163421   1.097118   2.147158
    19  H    2.173710   1.097855   2.159596   2.781410   4.182853
    20  H    1.098609   2.153664   2.765552   4.154083   5.160497
    21  H    2.170561   2.764680   3.427230   4.650129   5.661036
    22  H    2.178389   2.835403   2.812836   4.256424   4.935803
    23  H    3.485570   4.709468   5.176355   6.618794   7.401468
    24  H    2.834056   4.264998   4.712526   6.237296   7.021604
    25  H    3.393664   4.585178   5.679408   6.956020   8.118545
    26  H    3.958750   5.427557   6.382278   7.804917   8.861073
    27  H    3.486431   4.670812   6.009760   7.188343   8.500489
    28  H    2.829974   4.233504   5.285456   6.611485   7.749948
    29  H    2.171996   2.727972   4.200416   5.160669   6.565797
    30  H    2.172174   2.752443   4.147828   5.087159   6.465808
                    6          7          8          9         10
     6  C    0.000000
     7  C    1.527482   0.000000
     8  C    2.526793   1.523597   0.000000
     9  C    2.950298   2.517615   1.524554   0.000000
    10  C    2.526034   2.945934   2.522072   1.526598   0.000000
    11  H    3.492875   4.693880   4.941860   4.119993   2.671250
    12  H    3.413812   4.627350   5.557852   5.191878   4.153447
    13  H    2.825467   4.258507   5.312660   5.336703   4.286321
    14  H    5.107257   6.512605   7.119491   6.495080   5.087675
    15  H    6.481825   7.935136   8.842846   8.514620   7.184381
    16  H    5.704991   7.012069   8.037144   7.716484   6.558181
    17  H    5.366132   6.766246   7.860042   7.806086   6.635187
    18  H    4.725726   6.246428   6.917940   6.598967   5.184496
    19  H    2.798229   4.197474   4.538151   4.190459   2.784906
    20  H    2.151483   2.796912   3.349866   2.790590   2.147746
    21  H    1.097182   2.155222   2.824025   3.383358   2.828341
    22  H    1.096042   2.140666   3.458657   3.932832   3.481511
    23  H    2.158177   1.096694   2.155118   3.463811   3.932520
    24  H    2.155620   1.096127   2.153090   2.810473   3.371902
    25  H    2.821211   2.154907   1.097299   2.155286   2.813465
    26  H    3.471765   2.156322   1.096052   2.156718   3.468069
    27  H    3.938456   3.463466   2.155928   1.096259   2.158085
    28  H    3.369848   2.808731   2.154397   1.096390   2.156413
    29  H    2.824275   3.369684   2.810624   2.152852   1.097602
    30  H    3.477793   3.934080   3.462527   2.149954   1.096538
                   11         12         13         14         15
    11  H    0.000000
    12  H    2.530648   0.000000
    13  H    3.061533   1.766115   0.000000
    14  H    2.474938   2.506908   3.061077   0.000000
    15  H    4.779771   3.755217   3.741964   2.472207   0.000000
    16  H    4.365161   2.561772   3.099892   2.502858   1.772653
    17  H    4.689784   3.116171   2.547564   3.064740   1.772283
    18  H    3.007631   3.067761   2.501942   1.765833   2.474152
    19  H    1.759967   3.065723   2.484685   3.134563   4.860437
    20  H    2.501898   2.507334   3.168595   4.301752   6.121913
    21  H    3.747626   4.007435   3.012893   5.286905   6.563354
    22  H    3.840468   2.993061   2.251243   4.958250   5.974894
    23  H    5.590314   5.326300   4.682302   7.238584   8.423335
    24  H    4.942543   4.537509   4.507964   6.670542   8.077775
    25  H    5.186621   6.032320   5.522155   7.342727   9.018308
    26  H    5.943577   6.442514   6.272322   8.130494   9.841702
    27  H    4.758789   6.149301   6.289045   7.212638   9.338308
    28  H    4.364235   5.137583   5.585904   6.647764   8.674002
    29  H    2.949098   4.696435   4.490049   5.274190   7.306847
    30  H    2.446947   4.293012   4.766128   4.904864   7.201791
                   16         17         18         19         20
    16  H    0.000000
    17  H    1.774325   0.000000
    18  H    3.066183   2.502698   0.000000
    19  H    4.743399   4.383508   2.559494   0.000000
    20  H    5.065233   5.419304   4.709957   3.065772   0.000000
    21  H    6.064447   5.449251   4.570097   2.553167   3.061758
    22  H    5.077151   4.672902   4.543654   3.186957   2.469213
    23  H    7.544649   7.096040   6.770005   4.850176   3.798520
    24  H    6.944748   6.919152   6.641976   4.780923   2.645258
    25  H    8.406599   8.037513   6.917315   4.469331   4.039232
    26  H    8.944053   8.812693   7.984423   5.628753   4.153753
    27  H    8.637129   8.727782   7.318718   4.841215   3.790457
    28  H    7.688627   7.988071   6.988492   4.770637   2.633218
    29  H    6.927495   6.779859   5.078213   2.542730   3.059993
    30  H    6.593963   6.904580   5.311891   3.148913   2.461029
                   21         22         23         24         25
    21  H    0.000000
    22  H    1.761611   0.000000
    23  H    2.447710   2.477112   0.000000
    24  H    3.056004   2.432826   1.761386   0.000000
    25  H    2.676640   3.809024   2.452243   3.056604   0.000000
    26  H    3.820332   4.276805   2.498785   2.451260   1.762222
    27  H    4.193292   4.967512   4.287602   3.808141   2.453386
    28  H    4.062552   4.169954   3.807970   2.658107   3.057629
    29  H    2.685550   3.835467   4.175455   4.056114   2.657823
    30  H    3.832078   4.317539   4.966688   4.180920   3.805892
                   26         27         28         29         30
    26  H    0.000000
    27  H    2.498277   0.000000
    28  H    2.453954   1.762476   0.000000
    29  H    3.807893   2.449106   3.056250   0.000000
    30  H    4.284773   2.486987   2.448951   1.761566   0.000000
 Stoichiometry    C10H20
 Framework group  C1[X(C10H20)]
 Deg. of freedom    84
 Full point group                 C1      NOp   1
 Largest Abelian subgroup         C1      NOp   1
 Largest concise Abelian subgroup C1      NOp   1
                         Standard orientation:                         
 ---------------------------------------------------------------------
 Center     Atomic      Atomic             Coordinates (Angstroms)
 Number     Number       Type             X           Y           Z
 ---------------------------------------------------------------------
      1          6           0       -0.486771   -0.289271    0.252520
      2          6           0        0.893775   -0.745274   -0.258478
      3          6           0        2.043171    0.163781    0.185269
      4          6           0        3.397119   -0.409054   -0.236041
      5          6           0        4.542992    0.491130    0.196309
      6          6           0       -0.897663    1.081870   -0.309977
      7          6           0       -2.301866    1.486139    0.134977
      8          6           0       -3.334627    0.421263   -0.212576
      9          6           0       -2.942351   -0.938805    0.353639
     10          6           0       -1.543801   -1.350977   -0.098770
     11          1           0        1.087442   -1.761094    0.110840
     12          1           0        2.018684    0.283824    1.275002
     13          1           0        1.926184    1.160440   -0.255406
     14          1           0        3.534455   -1.402856    0.206297
     15          1           0        5.500350    0.061475   -0.114320
     16          1           0        4.559610    0.609827    1.284471
     17          1           0        4.453088    1.484227   -0.255759
     18          1           0        3.426309   -0.531720   -1.325889
     19          1           0        0.881945   -0.808135   -1.354467
     20          1           0       -0.438284   -0.210961    1.347261
     21          1           0       -0.856502    1.061033   -1.406189
     22          1           0       -0.196735    1.857171    0.020046
     23          1           0       -2.578420    2.435349   -0.339635
     24          1           0       -2.305160    1.658614    1.217444
     25          1           0       -3.434659    0.349101   -1.302921
     26          1           0       -4.315228    0.715318    0.178939
     27          1           0       -3.670266   -1.693962    0.034795
     28          1           0       -2.976969   -0.902761    1.448889
     29          1           0       -1.552112   -1.523223   -1.182741
     30          1           0       -1.283602   -2.306472    0.372103
 ---------------------------------------------------------------------
 Rotational constants (GHZ):      3.4102198      0.5113561      0.4648013
 Leave Link  202 at Thu Jul 21 12:01:40 2016, MaxMem=  2013265920 cpu:         0.0
 (Enter /public/apps/gaussian//g09/l301.exe)
 General basis read from cards:  (5D, 7F)
 Centers:       1      2      3      4      5      6      7      8      9     10
 6-31G(d')
 ****
 Centers:      11     12     13     14     15     16     17     18     19     20
 Centers:      21     22     23     24     25     26     27     28     29     30
 6-31G(d')
 ****
 Ernie: Thresh=  0.10000D-02 Tol=  0.10000D-05 Strict=F.
 AO basis set in the form of general basis input (Overlap normalization):
      1 0
 S   6 1.00       0.000000000000
      0.3047524880D+04  0.1834737132D-02
      0.4573695180D+03  0.1403732281D-01
      0.1039486850D+03  0.6884262226D-01
      0.2921015530D+02  0.2321844432D+00
      0.9286662960D+01  0.4679413484D+00
      0.3163926960D+01  0.3623119853D+00
 SP   3 1.00       0.000000000000
      0.7868272350D+01 -0.1193324198D+00  0.6899906659D-01
      0.1881288540D+01 -0.1608541517D+00  0.3164239610D+00
      0.5442492580D+00  0.1143456438D+01  0.7443082909D+00
 SP   1 1.00       0.000000000000
      0.1687144782D+00  0.1000000000D+01  0.1000000000D+01
 D   1 1.00       0.000000000000
      0.6260000000D+00  0.1000000000D+01
 ****
      2 0
 S   6 1.00       0.000000000000
      0.3047524880D+04  0.1834737132D-02
      0.4573695180D+03  0.1403732281D-01
      0.1039486850D+03  0.6884262226D-01
      0.2921015530D+02  0.2321844432D+00
      0.9286662960D+01  0.4679413484D+00
      0.3163926960D+01  0.3623119853D+00
 SP   3 1.00       0.000000000000
      0.7868272350D+01 -0.1193324198D+00  0.6899906659D-01
      0.1881288540D+01 -0.1608541517D+00  0.3164239610D+00
      0.5442492580D+00  0.1143456438D+01  0.7443082909D+00
 SP   1 1.00       0.000000000000
      0.1687144782D+00  0.1000000000D+01  0.1000000000D+01
 D   1 1.00       0.000000000000
      0.6260000000D+00  0.1000000000D+01
 ****
      3 0
 S   6 1.00       0.000000000000
      0.3047524880D+04  0.1834737132D-02
      0.4573695180D+03  0.1403732281D-01
      0.1039486850D+03  0.6884262226D-01
      0.2921015530D+02  0.2321844432D+00
      0.9286662960D+01  0.4679413484D+00
      0.3163926960D+01  0.3623119853D+00
 SP   3 1.00       0.000000000000
      0.7868272350D+01 -0.1193324198D+00  0.6899906659D-01
      0.1881288540D+01 -0.1608541517D+00  0.3164239610D+00
      0.5442492580D+00  0.1143456438D+01  0.7443082909D+00
 SP   1 1.00       0.000000000000
      0.1687144782D+00  0.1000000000D+01  0.1000000000D+01
 D   1 1.00       0.000000000000
      0.6260000000D+00  0.1000000000D+01
 ****
      4 0
 S   6 1.00       0.000000000000
      0.3047524880D+04  0.1834737132D-02
      0.4573695180D+03  0.1403732281D-01
      0.1039486850D+03  0.6884262226D-01
      0.2921015530D+02  0.2321844432D+00
      0.9286662960D+01  0.4679413484D+00
      0.3163926960D+01  0.3623119853D+00
 SP   3 1.00       0.000000000000
      0.7868272350D+01 -0.1193324198D+00  0.6899906659D-01
      0.1881288540D+01 -0.1608541517D+00  0.3164239610D+00
      0.5442492580D+00  0.1143456438D+01  0.7443082909D+00
 SP   1 1.00       0.000000000000
      0.1687144782D+00  0.1000000000D+01  0.1000000000D+01
 D   1 1.00       0.000000000000
      0.6260000000D+00  0.1000000000D+01
 ****
      5 0
 S   6 1.00       0.000000000000
      0.3047524880D+04  0.1834737132D-02
      0.4573695180D+03  0.1403732281D-01
      0.1039486850D+03  0.6884262226D-01
      0.2921015530D+02  0.2321844432D+00
      0.9286662960D+01  0.4679413484D+00
      0.3163926960D+01  0.3623119853D+00
 SP   3 1.00       0.000000000000
      0.7868272350D+01 -0.1193324198D+00  0.6899906659D-01
      0.1881288540D+01 -0.1608541517D+00  0.3164239610D+00
      0.5442492580D+00  0.1143456438D+01  0.7443082909D+00
 SP   1 1.00       0.000000000000
      0.1687144782D+00  0.1000000000D+01  0.1000000000D+01
 D   1 1.00       0.000000000000
      0.6260000000D+00  0.1000000000D+01
 ****
      6 0
 S   6 1.00       0.000000000000
      0.3047524880D+04  0.1834737132D-02
      0.4573695180D+03  0.1403732281D-01
      0.1039486850D+03  0.6884262226D-01
      0.2921015530D+02  0.2321844432D+00
      0.9286662960D+01  0.4679413484D+00
      0.3163926960D+01  0.3623119853D+00
 SP   3 1.00       0.000000000000
      0.7868272350D+01 -0.1193324198D+00  0.6899906659D-01
      0.1881288540D+01 -0.1608541517D+00  0.3164239610D+00
      0.5442492580D+00  0.1143456438D+01  0.7443082909D+00
 SP   1 1.00       0.000000000000
      0.1687144782D+00  0.1000000000D+01  0.1000000000D+01
 D   1 1.00       0.000000000000
      0.6260000000D+00  0.1000000000D+01
 ****
      7 0
 S   6 1.00       0.000000000000
      0.3047524880D+04  0.1834737132D-02
      0.4573695180D+03  0.1403732281D-01
      0.1039486850D+03  0.6884262226D-01
      0.2921015530D+02  0.2321844432D+00
      0.9286662960D+01  0.4679413484D+00
      0.3163926960D+01  0.3623119853D+00
 SP   3 1.00       0.000000000000
      0.7868272350D+01 -0.1193324198D+00  0.6899906659D-01
      0.1881288540D+01 -0.1608541517D+00  0.3164239610D+00
      0.5442492580D+00  0.1143456438D+01  0.7443082909D+00
 SP   1 1.00       0.000000000000
      0.1687144782D+00  0.1000000000D+01  0.1000000000D+01
 D   1 1.00       0.000000000000
      0.6260000000D+00  0.1000000000D+01
 ****
      8 0
 S   6 1.00       0.000000000000
      0.3047524880D+04  0.1834737132D-02
      0.4573695180D+03  0.1403732281D-01
      0.1039486850D+03  0.6884262226D-01
      0.2921015530D+02  0.2321844432D+00
      0.9286662960D+01  0.4679413484D+00
      0.3163926960D+01  0.3623119853D+00
 SP   3 1.00       0.000000000000
      0.7868272350D+01 -0.1193324198D+00  0.6899906659D-01
      0.1881288540D+01 -0.1608541517D+00  0.3164239610D+00
      0.5442492580D+00  0.1143456438D+01  0.7443082909D+00
 SP   1 1.00       0.000000000000
      0.1687144782D+00  0.1000000000D+01  0.1000000000D+01
 D   1 1.00       0.000000000000
      0.6260000000D+00  0.1000000000D+01
 ****
      9 0
 S   6 1.00       0.000000000000
      0.3047524880D+04  0.1834737132D-02
      0.4573695180D+03  0.1403732281D-01
      0.1039486850D+03  0.6884262226D-01
      0.2921015530D+02  0.2321844432D+00
      0.9286662960D+01  0.4679413484D+00
      0.3163926960D+01  0.3623119853D+00
 SP   3 1.00       0.000000000000
      0.7868272350D+01 -0.1193324198D+00  0.6899906659D-01
      0.1881288540D+01 -0.1608541517D+00  0.3164239610D+00
      0.5442492580D+00  0.1143456438D+01  0.7443082909D+00
 SP   1 1.00       0.000000000000
      0.1687144782D+00  0.1000000000D+01  0.1000000000D+01
 D   1 1.00       0.000000000000
      0.6260000000D+00  0.1000000000D+01
 ****
     10 0
 S   6 1.00       0.000000000000
      0.3047524880D+04  0.1834737132D-02
      0.4573695180D+03  0.1403732281D-01
      0.1039486850D+03  0.6884262226D-01
      0.2921015530D+02  0.2321844432D+00
      0.9286662960D+01  0.4679413484D+00
      0.3163926960D+01  0.3623119853D+00
 SP   3 1.00       0.000000000000
      0.7868272350D+01 -0.1193324198D+00  0.6899906659D-01
      0.1881288540D+01 -0.1608541517D+00  0.3164239610D+00
      0.5442492580D+00  0.1143456438D+01  0.7443082909D+00
 SP   1 1.00       0.000000000000
      0.1687144782D+00  0.1000000000D+01  0.1000000000D+01
 D   1 1.00       0.000000000000
      0.6260000000D+00  0.1000000000D+01
 ****
     11 0
 S   3 1.00       0.000000000000
      0.1873113696D+02  0.3349460434D-01
      0.2825394365D+01  0.2347269535D+00
      0.6401216923D+00  0.8137573261D+00
 S   1 1.00       0.000000000000
      0.1612777588D+00  0.1000000000D+01
 ****
     12 0
 S   3 1.00       0.000000000000
      0.1873113696D+02  0.3349460434D-01
      0.2825394365D+01  0.2347269535D+00
      0.6401216923D+00  0.8137573261D+00
 S   1 1.00       0.000000000000
      0.1612777588D+00  0.1000000000D+01
 ****
     13 0
 S   3 1.00       0.000000000000
      0.1873113696D+02  0.3349460434D-01
      0.2825394365D+01  0.2347269535D+00
      0.6401216923D+00  0.8137573261D+00
 S   1 1.00       0.000000000000
      0.1612777588D+00  0.1000000000D+01
 ****
     14 0
 S   3 1.00       0.000000000000
      0.1873113696D+02  0.3349460434D-01
      0.2825394365D+01  0.2347269535D+00
      0.6401216923D+00  0.8137573261D+00
 S   1 1.00       0.000000000000
      0.1612777588D+00  0.1000000000D+01
 ****
     15 0
 S   3 1.00       0.000000000000
      0.1873113696D+02  0.3349460434D-01
      0.2825394365D+01  0.2347269535D+00
      0.6401216923D+00  0.8137573261D+00
 S   1 1.00       0.000000000000
      0.1612777588D+00  0.1000000000D+01
 ****
     16 0
 S   3 1.00       0.000000000000
      0.1873113696D+02  0.3349460434D-01
      0.2825394365D+01  0.2347269535D+00
      0.6401216923D+00  0.8137573261D+00
 S   1 1.00       0.000000000000
      0.1612777588D+00  0.1000000000D+01
 ****
     17 0
 S   3 1.00       0.000000000000
      0.1873113696D+02  0.3349460434D-01
      0.2825394365D+01  0.2347269535D+00
      0.6401216923D+00  0.8137573261D+00
 S   1 1.00       0.000000000000
      0.1612777588D+00  0.1000000000D+01
 ****
     18 0
 S   3 1.00       0.000000000000
      0.1873113696D+02  0.3349460434D-01
      0.2825394365D+01  0.2347269535D+00
      0.6401216923D+00  0.8137573261D+00
 S   1 1.00       0.000000000000
      0.1612777588D+00  0.1000000000D+01
 ****
     19 0
 S   3 1.00       0.000000000000
      0.1873113696D+02  0.3349460434D-01
      0.2825394365D+01  0.2347269535D+00
      0.6401216923D+00  0.8137573261D+00
 S   1 1.00       0.000000000000
      0.1612777588D+00  0.1000000000D+01
 ****
     20 0
 S   3 1.00       0.000000000000
      0.1873113696D+02  0.3349460434D-01
      0.2825394365D+01  0.2347269535D+00
      0.6401216923D+00  0.8137573261D+00
 S   1 1.00       0.000000000000
      0.1612777588D+00  0.1000000000D+01
 ****
     21 0
 S   3 1.00       0.000000000000
      0.1873113696D+02  0.3349460434D-01
      0.2825394365D+01  0.2347269535D+00
      0.6401216923D+00  0.8137573261D+00
 S   1 1.00       0.000000000000
      0.1612777588D+00  0.1000000000D+01
 ****
     22 0
 S   3 1.00       0.000000000000
      0.1873113696D+02  0.3349460434D-01
      0.2825394365D+01  0.2347269535D+00
      0.6401216923D+00  0.8137573261D+00
 S   1 1.00       0.000000000000
      0.1612777588D+00  0.1000000000D+01
 ****
     23 0
 S   3 1.00       0.000000000000
      0.1873113696D+02  0.3349460434D-01
      0.2825394365D+01  0.2347269535D+00
      0.6401216923D+00  0.8137573261D+00
 S   1 1.00       0.000000000000
      0.1612777588D+00  0.1000000000D+01
 ****
     24 0
 S   3 1.00       0.000000000000
      0.1873113696D+02  0.3349460434D-01
      0.2825394365D+01  0.2347269535D+00
      0.6401216923D+00  0.8137573261D+00
 S   1 1.00       0.000000000000
      0.1612777588D+00  0.1000000000D+01
 ****
     25 0
 S   3 1.00       0.000000000000
      0.1873113696D+02  0.3349460434D-01
      0.2825394365D+01  0.2347269535D+00
      0.6401216923D+00  0.8137573261D+00
 S   1 1.00       0.000000000000
      0.1612777588D+00  0.1000000000D+01
 ****
     26 0
 S   3 1.00       0.000000000000
      0.1873113696D+02  0.3349460434D-01
      0.2825394365D+01  0.2347269535D+00
      0.6401216923D+00  0.8137573261D+00
 S   1 1.00       0.000000000000
      0.1612777588D+00  0.1000000000D+01
 ****
     27 0
 S   3 1.00       0.000000000000
      0.1873113696D+02  0.3349460434D-01
      0.2825394365D+01  0.2347269535D+00
      0.6401216923D+00  0.8137573261D+00
 S   1 1.00       0.000000000000
      0.1612777588D+00  0.1000000000D+01
 ****
     28 0
 S   3 1.00       0.000000000000
      0.1873113696D+02  0.3349460434D-01
      0.2825394365D+01  0.2347269535D+00
      0.6401216923D+00  0.8137573261D+00
 S   1 1.00       0.000000000000
      0.1612777588D+00  0.1000000000D+01
 ****
     29 0
 S   3 1.00       0.000000000000
      0.1873113696D+02  0.3349460434D-01
      0.2825394365D+01  0.2347269535D+00
      0.6401216923D+00  0.8137573261D+00
 S   1 1.00       0.000000000000
      0.1612777588D+00  0.1000000000D+01
 ****
     30 0
 S   3 1.00       0.000000000000
      0.1873113696D+02  0.3349460434D-01
      0.2825394365D+01  0.2347269535D+00
      0.6401216923D+00  0.8137573261D+00
 S   1 1.00       0.000000000000
      0.1612777588D+00  0.1000000000D+01
 ****

 There are   190 symmetry adapted cartesian basis functions of A   symmetry.
 There are   180 symmetry adapted basis functions of A   symmetry.
   180 basis functions,   360 primitive gaussians,   190 cartesian basis functions
    40 alpha electrons       40 beta electrons
       nuclear repulsion energy       556.8212867022 Hartrees.
 IExCor=  402 DFT=T Ex+Corr=B3LYP ExCW=0 ScaHFX=  0.200000
 ScaDFX=  0.800000  0.720000  1.000000  0.810000 ScalE2=  1.000000  1.000000
 IRadAn=      0 IRanWt=     -1 IRanGd=            0 ICorTp=0 IEmpDi=  4
 NAtoms=   30 NActive=   30 NUniq=   30 SFac= 1.00D+00 NAtFMM=   60 NAOKFM=F Big=F
 Integral buffers will be    131072 words long.
 Raffenetti 2 integral format.
 Two-electron integral symmetry is turned on.
 Leave Link  301 at Thu Jul 21 12:01:40 2016, MaxMem=  2013265920 cpu:         0.3
 (Enter /public/apps/gaussian//g09/l302.exe)
 NPDir=0 NMtPBC=     1 NCelOv=     1 NCel=       1 NClECP=     1 NCelD=      1
         NCelK=      1 NCelE2=     1 NClLst=     1 CellRange=     0.0.
 One-electron integrals computed using PRISM.
 NBasis=   180 RedAO= T EigKep=  2.42D-03  NBF=   180
 NBsUse=   180 1.00D-06 EigRej= -1.00D+00 NBFU=   180
 Precomputing XC quadrature grid using
 IXCGrd= 4 IRadAn=           0 IRanWt=          -1 IRanGd=           0 AccXCQ= 0.00D+00.
 Generated NRdTot=       0 NPtTot=           0 NUsed=           0 NTot=          32
 NSgBfM=   190   190   190   190   190 MxSgAt=    30 MxSgA2=    30.
 Leave Link  302 at Thu Jul 21 12:01:41 2016, MaxMem=  2013265920 cpu:         1.8
 (Enter /public/apps/gaussian//g09/l303.exe)
 DipDrv:  MaxL=1.
 Leave Link  303 at Thu Jul 21 12:01:41 2016, MaxMem=  2013265920 cpu:         0.2
 (Enter /public/apps/gaussian//g09/l401.exe)
 ExpMin= 1.61D-01 ExpMax= 3.05D+03 ExpMxC= 4.57D+02 IAcc=1 IRadAn=         1 AccDes= 0.00D+00
 Harris functional with IExCor=  402 and IRadAn=       1 diagonalized for initial guess.
 HarFok:  IExCor=  402 AccDes= 0.00D+00 IRadAn=         1 IDoV= 1 UseB2=F ITyADJ=14
 ICtDFT=  3500011 ScaDFX=  1.000000  1.000000  1.000000  1.000000
 FoFCou: FMM=F IPFlag=           0 FMFlag=      100000 FMFlg1=           0
         NFxFlg=           0 DoJE=T BraDBF=F KetDBF=T FulRan=T
         wScrn=  0.000000 ICntrl=     500 IOpCl=  0 I1Cent=   200000004 NGrid=           0
         NMat0=    1 NMatS0=      1 NMatT0=    0 NMatD0=    1 NMtDS0=    0 NMtDT0=    0
 Petite list used in FoFCou.
 Harris En= -393.214254560609    
 JPrj=0 DoOrth=F DoCkMO=F.
 Leave Link  401 at Thu Jul 21 12:01:41 2016, MaxMem=  2013265920 cpu:         3.1
 (Enter /public/apps/gaussian//g09/l502.exe)
 Closed shell SCF:
 Using DIIS extrapolation, IDIIS=  1040.
 Integral symmetry usage will be decided dynamically.
 Keep R1 ints in memory in canonical form, NReq=136303865.
 IVT=      129830 IEndB=      129830 NGot=  2013265920 MDV=  1880445896
 LenX=  1880445896 LenY=  1880409355
 Requested convergence on RMS density matrix=1.00D-08 within 128 cycles.
 Requested convergence on MAX density matrix=1.00D-06.
 Requested convergence on             energy=1.00D-06.
 No special actions if energy rises.
 FoFCou: FMM=F IPFlag=           0 FMFlag=           0 FMFlg1=           0
         NFxFlg=           0 DoJE=F BraDBF=F KetDBF=F FulRan=T
         wScrn=  0.000000 ICntrl=     600 IOpCl=  0 I1Cent=           0 NGrid=           0
         NMat0=    1 NMatS0=  16290 NMatT0=    0 NMatD0=    1 NMtDS0=    0 NMtDT0=    0
 Symmetry not used in FoFCou.
 Integral accuracy reduced to 1.0D-05 until final iterations.

 Cycle   1  Pass 0  IDiag  1:
 E= -392.719289969772    
 DIIS: error= 4.19D-02 at cycle   1 NSaved=   1.
 NSaved= 1 IEnMin= 1 EnMin= -392.719289969772     IErMin= 1 ErrMin= 4.19D-02
 ErrMax= 4.19D-02  0.00D+00 EMaxC= 1.00D-01 BMatC= 3.41D-01 BMatP= 3.41D-01
 IDIUse=3 WtCom= 5.81D-01 WtEn= 4.19D-01
 Coeff-Com:  0.100D+01
 Coeff-En:   0.100D+01
 Coeff:      0.100D+01
 Gap=     0.298 Goal=   None    Shift=    0.000
 GapD=    0.298 DampG=1.000 DampE=0.500 DampFc=0.5000 IDamp=-1.
 Damping current iteration by 5.00D-01
 RMSDP=8.15D-03 MaxDP=1.56D-01              OVMax= 1.81D-01

 Cycle   2  Pass 0  IDiag  1:
 E= -392.892464770682     Delta-E=       -0.173174800910 Rises=F Damp=T
 DIIS: error= 7.93D-03 at cycle   2 NSaved=   2.
 NSaved= 2 IEnMin= 2 EnMin= -392.892464770682     IErMin= 2 ErrMin= 7.93D-03
 ErrMax= 7.93D-03  0.00D+00 EMaxC= 1.00D-01 BMatC= 1.50D-02 BMatP= 3.41D-01
 IDIUse=3 WtCom= 9.21D-01 WtEn= 7.93D-02
 Coeff-Com:  0.919D-01 0.908D+00
 Coeff-En:   0.147D+00 0.853D+00
 Coeff:      0.963D-01 0.904D+00
 Gap=     0.370 Goal=   None    Shift=    0.000
 RMSDP=1.45D-03 MaxDP=3.19D-02 DE=-1.73D-01 OVMax= 1.08D-01

 Cycle   3  Pass 0  IDiag  1:
 E= -393.118187891133     Delta-E=       -0.225723120451 Rises=F Damp=F
 DIIS: error= 4.85D-03 at cycle   3 NSaved=   3.
 NSaved= 3 IEnMin= 3 EnMin= -393.118187891133     IErMin= 3 ErrMin= 4.85D-03
 ErrMax= 4.85D-03  0.00D+00 EMaxC= 1.00D-01 BMatC= 3.27D-03 BMatP= 1.50D-02
 IDIUse=3 WtCom= 9.52D-01 WtEn= 4.85D-02
 Coeff-Com:  0.919D-02 0.292D+00 0.698D+00
 Coeff-En:   0.000D+00 0.000D+00 0.100D+01
 Coeff:      0.875D-02 0.278D+00 0.713D+00
 Gap=     0.366 Goal=   None    Shift=    0.000
 RMSDP=4.61D-04 MaxDP=7.03D-03 DE=-2.26D-01 OVMax= 1.33D-02

 Cycle   4  Pass 0  IDiag  1:
 E= -393.120740235005     Delta-E=       -0.002552343873 Rises=F Damp=F
 DIIS: error= 1.31D-03 at cycle   4 NSaved=   4.
 NSaved= 4 IEnMin= 4 EnMin= -393.120740235005     IErMin= 4 ErrMin= 1.31D-03
 ErrMax= 1.31D-03  0.00D+00 EMaxC= 1.00D-01 BMatC= 6.52D-04 BMatP= 3.27D-03
 IDIUse=3 WtCom= 9.87D-01 WtEn= 1.31D-02
 Coeff-Com: -0.167D-02 0.586D-01 0.328D+00 0.615D+00
 Coeff-En:   0.000D+00 0.000D+00 0.102D+00 0.898D+00
 Coeff:     -0.164D-02 0.579D-01 0.325D+00 0.618D+00
 Gap=     0.366 Goal=   None    Shift=    0.000
 RMSDP=1.66D-04 MaxDP=4.04D-03 DE=-2.55D-03 OVMax= 5.37D-03

 Cycle   5  Pass 0  IDiag  1:
 E= -393.121340953892     Delta-E=       -0.000600718887 Rises=F Damp=F
 DIIS: error= 3.72D-04 at cycle   5 NSaved=   5.
 NSaved= 5 IEnMin= 5 EnMin= -393.121340953892     IErMin= 5 ErrMin= 3.72D-04
 ErrMax= 3.72D-04  0.00D+00 EMaxC= 1.00D-01 BMatC= 5.11D-05 BMatP= 6.52D-04
 IDIUse=3 WtCom= 9.96D-01 WtEn= 3.72D-03
 Coeff-Com: -0.119D-02 0.631D-03 0.831D-01 0.285D+00 0.632D+00
 Coeff-En:   0.000D+00 0.000D+00 0.000D+00 0.000D+00 0.100D+01
 Coeff:     -0.119D-02 0.628D-03 0.828D-01 0.284D+00 0.634D+00
 Gap=     0.365 Goal=   None    Shift=    0.000
 RMSDP=4.21D-05 MaxDP=9.94D-04 DE=-6.01D-04 OVMax= 1.30D-03

 Cycle   6  Pass 0  IDiag  1:
 E= -393.121393507979     Delta-E=       -0.000052554087 Rises=F Damp=F
 DIIS: error= 4.42D-05 at cycle   6 NSaved=   6.
 NSaved= 6 IEnMin= 6 EnMin= -393.121393507979     IErMin= 6 ErrMin= 4.42D-05
 ErrMax= 4.42D-05  0.00D+00 EMaxC= 1.00D-01 BMatC= 7.44D-07 BMatP= 5.11D-05
 IDIUse=1 WtCom= 1.00D+00 WtEn= 0.00D+00
 Coeff-Com: -0.293D-03-0.122D-02 0.231D-01 0.905D-01 0.234D+00 0.654D+00
 Coeff:     -0.293D-03-0.122D-02 0.231D-01 0.905D-01 0.234D+00 0.654D+00
 Gap=     0.365 Goal=   None    Shift=    0.000
 RMSDP=5.81D-06 MaxDP=1.52D-04 DE=-5.26D-05 OVMax= 1.74D-04

 Initial convergence to 1.0D-05 achieved.  Increase integral accuracy.
 Cycle   7  Pass 1  IDiag  1:
 E= -393.121298744443     Delta-E=        0.000094763536 Rises=F Damp=F
 DIIS: error= 2.12D-05 at cycle   1 NSaved=   1.
 NSaved= 1 IEnMin= 1 EnMin= -393.121298744443     IErMin= 1 ErrMin= 2.12D-05
 ErrMax= 2.12D-05  0.00D+00 EMaxC= 1.00D-01 BMatC= 2.21D-07 BMatP= 2.21D-07
 IDIUse=1 WtCom= 1.00D+00 WtEn= 0.00D+00
 Coeff-Com:  0.100D+01
 Coeff:      0.100D+01
 Gap=     0.365 Goal=   None    Shift=    0.000
 RMSDP=5.81D-06 MaxDP=1.52D-04 DE= 9.48D-05 OVMax= 1.26D-04

 Cycle   8  Pass 1  IDiag  1:
 E= -393.121298845427     Delta-E=       -0.000000100984 Rises=F Damp=F
 DIIS: error= 2.59D-05 at cycle   2 NSaved=   2.
 NSaved= 2 IEnMin= 2 EnMin= -393.121298845427     IErMin= 1 ErrMin= 2.12D-05
 ErrMax= 2.59D-05  0.00D+00 EMaxC= 1.00D-01 BMatC= 1.68D-07 BMatP= 2.21D-07
 IDIUse=1 WtCom= 1.00D+00 WtEn= 0.00D+00
 Coeff-Com:  0.459D+00 0.541D+00
 Coeff:      0.459D+00 0.541D+00
 Gap=     0.365 Goal=   None    Shift=    0.000
 RMSDP=2.43D-06 MaxDP=7.13D-05 DE=-1.01D-07 OVMax= 8.36D-05

 Cycle   9  Pass 1  IDiag  1:
 E= -393.121299004544     Delta-E=       -0.000000159117 Rises=F Damp=F
 DIIS: error= 5.64D-06 at cycle   3 NSaved=   3.
 NSaved= 3 IEnMin= 3 EnMin= -393.121299004544     IErMin= 3 ErrMin= 5.64D-06
 ErrMax= 5.64D-06  0.00D+00 EMaxC= 1.00D-01 BMatC= 9.16D-09 BMatP= 1.68D-07
 IDIUse=1 WtCom= 1.00D+00 WtEn= 0.00D+00
 Coeff-Com: -0.468D-03 0.183D+00 0.817D+00
 Coeff:     -0.468D-03 0.183D+00 0.817D+00
 Gap=     0.365 Goal=   None    Shift=    0.000
 RMSDP=5.66D-07 MaxDP=1.50D-05 DE=-1.59D-07 OVMax= 1.61D-05

 Cycle  10  Pass 1  IDiag  1:
 E= -393.121299013345     Delta-E=       -0.000000008800 Rises=F Damp=F
 DIIS: error= 1.10D-06 at cycle   4 NSaved=   4.
 NSaved= 4 IEnMin= 4 EnMin= -393.121299013345     IErMin= 4 ErrMin= 1.10D-06
 ErrMax= 1.10D-06  0.00D+00 EMaxC= 1.00D-01 BMatC= 4.30D-10 BMatP= 9.16D-09
 IDIUse=1 WtCom= 1.00D+00 WtEn= 0.00D+00
 Coeff-Com: -0.123D-01 0.660D-01 0.355D+00 0.591D+00
 Coeff:     -0.123D-01 0.660D-01 0.355D+00 0.591D+00
 Gap=     0.365 Goal=   None    Shift=    0.000
 RMSDP=1.34D-07 MaxDP=3.86D-06 DE=-8.80D-09 OVMax= 4.07D-06

 Cycle  11  Pass 1  IDiag  1:
 E= -393.121299013760     Delta-E=       -0.000000000415 Rises=F Damp=F
 DIIS: error= 2.85D-07 at cycle   5 NSaved=   5.
 NSaved= 5 IEnMin= 5 EnMin= -393.121299013760     IErMin= 5 ErrMin= 2.85D-07
 ErrMax= 2.85D-07  0.00D+00 EMaxC= 1.00D-01 BMatC= 3.30D-11 BMatP= 4.30D-10
 IDIUse=1 WtCom= 1.00D+00 WtEn= 0.00D+00
 Coeff-Com: -0.586D-02 0.251D-01 0.141D+00 0.297D+00 0.543D+00
 Coeff:     -0.586D-02 0.251D-01 0.141D+00 0.297D+00 0.543D+00
 Gap=     0.365 Goal=   None    Shift=    0.000
 RMSDP=3.54D-08 MaxDP=6.81D-07 DE=-4.15D-10 OVMax= 9.95D-07

 Cycle  12  Pass 1  IDiag  1:
 E= -393.121299013795     Delta-E=       -0.000000000035 Rises=F Damp=F
 DIIS: error= 5.38D-08 at cycle   6 NSaved=   6.
 NSaved= 6 IEnMin= 6 EnMin= -393.121299013795     IErMin= 6 ErrMin= 5.38D-08
 ErrMax= 5.38D-08  0.00D+00 EMaxC= 1.00D-01 BMatC= 5.11D-13 BMatP= 3.30D-11
 IDIUse=1 WtCom= 1.00D+00 WtEn= 0.00D+00
 Coeff-Com: -0.667D-03 0.171D-02 0.105D-01 0.317D-01 0.131D+00 0.826D+00
 Coeff:     -0.667D-03 0.171D-02 0.105D-01 0.317D-01 0.131D+00 0.826D+00
 Gap=     0.365 Goal=   None    Shift=    0.000
 RMSDP=5.81D-09 MaxDP=1.08D-07 DE=-3.50D-11 OVMax= 1.88D-07

 SCF Done:  E(RB3LYP) =  -393.121299014     A.U. after   12 cycles
            NFock= 12  Conv=0.58D-08     -V/T= 2.0064
 KE= 3.906369705770D+02 PE=-2.023027781129D+03 EE= 6.824482248357D+02
 Leave Link  502 at Thu Jul 21 12:01:51 2016, MaxMem=  2013265920 cpu:        62.4
 (Enter /public/apps/gaussian//g09/l508.exe)
 QCSCF skips out because SCF is already converged.
 Leave Link  508 at Thu Jul 21 12:01:51 2016, MaxMem=  2013265920 cpu:         0.0
 (Enter /public/apps/gaussian//g09/l601.exe)
 Copying SCF densities to generalized density rwf, IOpCl= 0 IROHF=0.

 **********************************************************************

            Population analysis using the SCF density.

 **********************************************************************

 Orbital symmetries:
       Occupied  (A) (A) (A) (A) (A) (A) (A) (A) (A) (A) (A) (A)
                 (A) (A) (A) (A) (A) (A) (A) (A) (A) (A) (A) (A)
                 (A) (A) (A) (A) (A) (A) (A) (A) (A) (A) (A) (A)
                 (A) (A) (A) (A)
       Virtual   (A) (A) (A) (A) (A) (A) (A) (A) (A) (A) (A) (A)
                 (A) (A) (A) (A) (A) (A) (A) (A) (A) (A) (A) (A)
                 (A) (A) (A) (A) (A) (A) (A) (A) (A) (A) (A) (A)
                 (A) (A) (A) (A) (A) (A) (A) (A) (A) (A) (A) (A)
                 (A) (A) (A) (A) (A) (A) (A) (A) (A) (A) (A) (A)
                 (A) (A) (A) (A) (A) (A) (A) (A) (A) (A) (A) (A)
                 (A) (A) (A) (A) (A) (A) (A) (A) (A) (A) (A) (A)
                 (A) (A) (A) (A) (A) (A) (A) (A) (A) (A) (A) (A)
                 (A) (A) (A) (A) (A) (A) (A) (A) (A) (A) (A) (A)
                 (A) (A) (A) (A) (A) (A) (A) (A) (A) (A) (A) (A)
                 (A) (A) (A) (A) (A) (A) (A) (A) (A) (A) (A) (A)
                 (A) (A) (A) (A) (A) (A) (A) (A)
 The electronic state is 1-A.
 Alpha  occ. eigenvalues --  -10.17130 -10.16635 -10.16417 -10.16404 -10.16357
 Alpha  occ. eigenvalues --  -10.16351 -10.16335 -10.16320 -10.16272 -10.15912
 Alpha  occ. eigenvalues --   -0.82946  -0.79140  -0.75130  -0.73370  -0.69669
 Alpha  occ. eigenvalues --   -0.62815  -0.60128  -0.57736  -0.56439  -0.54393
 Alpha  occ. eigenvalues --   -0.47105  -0.46429  -0.43678  -0.43343  -0.42956
 Alpha  occ. eigenvalues --   -0.41824  -0.40117  -0.38449  -0.37170  -0.36734
 Alpha  occ. eigenvalues --   -0.35550  -0.34229  -0.33590  -0.32784  -0.32413
 Alpha  occ. eigenvalues --   -0.32209  -0.31680  -0.30907  -0.28524  -0.27662
 Alpha virt. eigenvalues --    0.08878   0.09858   0.10483   0.11858   0.12491
 Alpha virt. eigenvalues --    0.13790   0.14583   0.15931   0.16681   0.16904
 Alpha virt. eigenvalues --    0.17668   0.18001   0.18241   0.18432   0.18807
 Alpha virt. eigenvalues --    0.19799   0.19963   0.20954   0.21252   0.22356
 Alpha virt. eigenvalues --    0.22725   0.24007   0.25135   0.26484   0.27336
 Alpha virt. eigenvalues --    0.28003   0.29160   0.29999   0.31595   0.32608
 Alpha virt. eigenvalues --    0.48884   0.49972   0.51096   0.52971   0.53317
 Alpha virt. eigenvalues --    0.54645   0.55583   0.55982   0.57548   0.59839
 Alpha virt. eigenvalues --    0.60501   0.61471   0.64196   0.65383   0.66834
 Alpha virt. eigenvalues --    0.67705   0.69183   0.71230   0.72953   0.73419
 Alpha virt. eigenvalues --    0.75858   0.76907   0.80285   0.81357   0.81803
 Alpha virt. eigenvalues --    0.82512   0.83243   0.84608   0.84711   0.86073
 Alpha virt. eigenvalues --    0.86360   0.86739   0.87131   0.87573   0.88977
 Alpha virt. eigenvalues --    0.90363   0.90866   0.91887   0.92664   0.93690
 Alpha virt. eigenvalues --    0.94865   0.95239   0.96079   0.96871   0.98488
 Alpha virt. eigenvalues --    0.99121   1.00489   1.03771   1.06748   1.11255
 Alpha virt. eigenvalues --    1.12205   1.14612   1.17432   1.22246   1.25536
 Alpha virt. eigenvalues --    1.27848   1.38128   1.38849   1.41766   1.44916
 Alpha virt. eigenvalues --    1.45276   1.49125   1.51011   1.52674   1.53524
 Alpha virt. eigenvalues --    1.55322   1.61484   1.62715   1.65494   1.68655
 Alpha virt. eigenvalues --    1.69990   1.70812   1.72635   1.74261   1.76097
 Alpha virt. eigenvalues --    1.77169   1.79340   1.81713   1.83013   1.83594
 Alpha virt. eigenvalues --    1.83929   1.88212   1.89216   1.92472   1.93683
 Alpha virt. eigenvalues --    1.95813   1.97644   2.00645   2.03332   2.05040
 Alpha virt. eigenvalues --    2.07381   2.08779   2.11175   2.12527   2.13849
 Alpha virt. eigenvalues --    2.15013   2.16482   2.18957   2.20205   2.21668
 Alpha virt. eigenvalues --    2.25234   2.27239   2.28695   2.30999   2.32132
 Alpha virt. eigenvalues --    2.36172   2.39246   2.42654   2.50520   2.51425
          Condensed to atoms (all electrons):
               1          2          3          4          5          6
     1  C    4.765887   0.410746  -0.031183   0.002984  -0.000104   0.417135
     2  C    0.410746   4.960857   0.411890  -0.036581   0.003253  -0.036491
     3  C   -0.031183   0.411890   4.924373   0.416954  -0.042573  -0.004415
     4  C    0.002984  -0.036581   0.416954   4.893683   0.400065   0.000200
     5  C   -0.000104   0.003253  -0.042573   0.400065   5.058111   0.000003
     6  C    0.417135  -0.036491  -0.004415   0.000200   0.000003   4.972076
     7  C   -0.029208   0.003521   0.000164  -0.000003   0.000000   0.404944
     8  C   -0.014424   0.000239  -0.000001   0.000000   0.000000  -0.035775
     9  C   -0.028570   0.003306  -0.000111   0.000001   0.000000  -0.012590
    10  C    0.415393  -0.039640   0.003281  -0.000091   0.000001  -0.036899
    11  H   -0.031934   0.363833  -0.037477  -0.005170   0.000103   0.004932
    12  H   -0.003390  -0.037053   0.370393  -0.036241  -0.003346  -0.000899
    13  H   -0.004843  -0.031825   0.370336  -0.036196  -0.003130   0.001851
    14  H   -0.000006  -0.004073  -0.035888   0.375039  -0.036560  -0.000001
    15  H    0.000001  -0.000135   0.004249  -0.026774   0.371890   0.000000
    16  H    0.000002   0.000073  -0.004806  -0.031948   0.378536   0.000000
    17  H    0.000002   0.000063  -0.004881  -0.031914   0.378285  -0.000004
    18  H    0.000113  -0.003292  -0.035876   0.375362  -0.036632  -0.000017
    19  H   -0.029747   0.361484  -0.034729  -0.003710   0.000007  -0.008659
    20  H    0.362498  -0.041460  -0.005616   0.000031  -0.000001  -0.048038
    21  H   -0.036820  -0.005009  -0.000524  -0.000040   0.000000   0.363233
    22  H   -0.029924  -0.005232   0.001796  -0.000069   0.000007   0.365578
    23  H    0.004052  -0.000124   0.000001   0.000000   0.000000  -0.030507
    24  H   -0.005146   0.000051  -0.000023   0.000000   0.000000  -0.037065
    25  H   -0.000945  -0.000029   0.000000   0.000000   0.000000  -0.004315
    26  H    0.000228   0.000005   0.000000   0.000000   0.000000   0.004599
    27  H    0.004064  -0.000122   0.000001   0.000000   0.000000   0.000122
    28  H   -0.005379   0.000042   0.000001   0.000000   0.000000  -0.000847
    29  H   -0.035352  -0.005578   0.000067   0.000000   0.000000  -0.006379
    30  H   -0.030133  -0.005147   0.000015  -0.000003   0.000000   0.005111
               7          8          9         10         11         12
     1  C   -0.029208  -0.014424  -0.028570   0.415393  -0.031934  -0.003390
     2  C    0.003521   0.000239   0.003306  -0.039640   0.363833  -0.037053
     3  C    0.000164  -0.000001  -0.000111   0.003281  -0.037477   0.370393
     4  C   -0.000003   0.000000   0.000001  -0.000091  -0.005170  -0.036241
     5  C    0.000000   0.000000   0.000000   0.000001   0.000103  -0.003346
     6  C    0.404944  -0.035775  -0.012590  -0.036899   0.004932  -0.000899
     7  C    4.934758   0.414581  -0.039208  -0.013165  -0.000140  -0.000032
     8  C    0.414581   4.924465   0.415245  -0.035885  -0.000005   0.000000
     9  C   -0.039208   0.415245   4.936839   0.401966   0.000086   0.000002
    10  C   -0.013165  -0.035885   0.401966   4.973313  -0.004878   0.000108
    11  H   -0.000140  -0.000005   0.000086  -0.004878   0.611368  -0.004401
    12  H   -0.000032   0.000000   0.000002   0.000108  -0.004401   0.605570
    13  H   -0.000076  -0.000001   0.000003   0.000029   0.005709  -0.039436
    14  H    0.000000   0.000000   0.000000  -0.000007   0.005816  -0.005426
    15  H    0.000000   0.000000   0.000000   0.000000   0.000001  -0.000036
    16  H    0.000000   0.000000   0.000000   0.000000   0.000004   0.004980
    17  H    0.000000   0.000000   0.000000   0.000000   0.000010  -0.000386
    18  H    0.000000   0.000000   0.000000   0.000003  -0.000410   0.005804
    19  H    0.000079  -0.000027   0.000047  -0.005144  -0.038477   0.005836
    20  H   -0.003167  -0.000872  -0.003105  -0.044711  -0.003480   0.006028
    21  H   -0.037169  -0.004429  -0.000391  -0.005793   0.000011   0.000098
    22  H   -0.031607   0.004553   0.000081   0.004919  -0.000078   0.000685
    23  H    0.367770  -0.032777   0.004831   0.000144   0.000003   0.000000
    24  H    0.369860  -0.038008  -0.004624  -0.000754   0.000003   0.000001
    25  H   -0.038283   0.370084  -0.038259  -0.004385   0.000001   0.000000
    26  H   -0.032030   0.368595  -0.032221   0.004624   0.000000   0.000000
    27  H    0.004804  -0.032447   0.366956  -0.029915  -0.000006   0.000000
    28  H   -0.004549  -0.038157   0.369487  -0.036624  -0.000001  -0.000002
    29  H   -0.000388  -0.004676  -0.037673   0.364173  -0.000290   0.000009
    30  H    0.000097   0.004666  -0.031344   0.363405   0.005912   0.000001
              13         14         15         16         17         18
     1  C   -0.004843  -0.000006   0.000001   0.000002   0.000002   0.000113
     2  C   -0.031825  -0.004073  -0.000135   0.000073   0.000063  -0.003292
     3  C    0.370336  -0.035888   0.004249  -0.004806  -0.004881  -0.035876
     4  C   -0.036196   0.375039  -0.026774  -0.031948  -0.031914   0.375362
     5  C   -0.003130  -0.036560   0.371890   0.378536   0.378285  -0.036632
     6  C    0.001851  -0.000001   0.000000   0.000000  -0.000004  -0.000017
     7  C   -0.000076   0.000000   0.000000   0.000000   0.000000   0.000000
     8  C   -0.000001   0.000000   0.000000   0.000000   0.000000   0.000000
     9  C    0.000003   0.000000   0.000000   0.000000   0.000000   0.000000
    10  C    0.000029  -0.000007   0.000000   0.000000   0.000000   0.000003
    11  H    0.005709   0.005816   0.000001   0.000004   0.000010  -0.000410
    12  H   -0.039436  -0.005426  -0.000036   0.004980  -0.000386   0.005804
    13  H    0.596096   0.005761  -0.000039  -0.000409   0.005218  -0.005465
    14  H    0.005761   0.601252  -0.002959  -0.004667   0.005396  -0.038410
    15  H   -0.000039  -0.002959   0.568672  -0.029922  -0.029853  -0.002973
    16  H   -0.000409  -0.004667  -0.029922   0.565695  -0.031449   0.005375
    17  H    0.005218   0.005396  -0.029853  -0.031449   0.565785  -0.004709
    18  H   -0.005465  -0.038410  -0.002973   0.005375  -0.004709   0.601072
    19  H   -0.005774  -0.000384   0.000003   0.000006   0.000004   0.004704
    20  H   -0.000136   0.000008   0.000000  -0.000002   0.000001   0.000008
    21  H    0.000542   0.000001   0.000000   0.000000   0.000000   0.000001
    22  H    0.003155  -0.000001   0.000000   0.000001  -0.000004   0.000012
    23  H    0.000005   0.000000   0.000000   0.000000   0.000000   0.000000
    24  H    0.000011   0.000000   0.000000   0.000000   0.000000   0.000000
    25  H    0.000000   0.000000   0.000000   0.000000   0.000000   0.000000
    26  H    0.000000   0.000000   0.000000   0.000000   0.000000   0.000000
    27  H    0.000000   0.000000   0.000000   0.000000   0.000000   0.000000
    28  H    0.000000   0.000000   0.000000   0.000000   0.000000   0.000000
    29  H    0.000003   0.000001   0.000000   0.000000   0.000000  -0.000002
    30  H    0.000000  -0.000001   0.000000   0.000000   0.000000   0.000001
              19         20         21         22         23         24
     1  C   -0.029747   0.362498  -0.036820  -0.029924   0.004052  -0.005146
     2  C    0.361484  -0.041460  -0.005009  -0.005232  -0.000124   0.000051
     3  C   -0.034729  -0.005616  -0.000524   0.001796   0.000001  -0.000023
     4  C   -0.003710   0.000031  -0.000040  -0.000069   0.000000   0.000000
     5  C    0.000007  -0.000001   0.000000   0.000007   0.000000   0.000000
     6  C   -0.008659  -0.048038   0.363233   0.365578  -0.030507  -0.037065
     7  C    0.000079  -0.003167  -0.037169  -0.031607   0.367770   0.369860
     8  C   -0.000027  -0.000872  -0.004429   0.004553  -0.032777  -0.038008
     9  C    0.000047  -0.003105  -0.000391   0.000081   0.004831  -0.004624
    10  C   -0.005144  -0.044711  -0.005793   0.004919   0.000144  -0.000754
    11  H   -0.038477  -0.003480   0.000011  -0.000078   0.000003   0.000003
    12  H    0.005836   0.006028   0.000098   0.000685   0.000000   0.000001
    13  H   -0.005774  -0.000136   0.000542   0.003155   0.000005   0.000011
    14  H   -0.000384   0.000008   0.000001  -0.000001   0.000000   0.000000
    15  H    0.000003   0.000000   0.000000   0.000000   0.000000   0.000000
    16  H    0.000006  -0.000002   0.000000   0.000001   0.000000   0.000000
    17  H    0.000004   0.000001   0.000000  -0.000004   0.000000   0.000000
    18  H    0.004704   0.000008   0.000001   0.000012   0.000000   0.000000
    19  H    0.607584   0.006235   0.005924  -0.000018  -0.000001   0.000007
    20  H    0.006235   0.649030   0.006591  -0.004951  -0.000082   0.004877
    21  H    0.005924   0.006591   0.610968  -0.037066  -0.004894   0.006100
    22  H   -0.000018  -0.004951  -0.037066   0.598210  -0.002586  -0.004988
    23  H   -0.000001  -0.000082  -0.004894  -0.002586   0.604849  -0.036439
    24  H    0.000007   0.004877   0.006100  -0.004988  -0.036439   0.607940
    25  H   -0.000005   0.000162   0.004673  -0.000046  -0.004869   0.006167
    26  H    0.000000  -0.000024  -0.000047  -0.000173  -0.002576  -0.004839
    27  H    0.000003  -0.000074  -0.000032   0.000014  -0.000175  -0.000061
    28  H    0.000005   0.004963   0.000154  -0.000032  -0.000062   0.004860
    29  H    0.005186   0.006545   0.004723  -0.000064  -0.000036   0.000157
    30  H   -0.000298  -0.005148  -0.000064  -0.000163   0.000014  -0.000031
              25         26         27         28         29         30
     1  C   -0.000945   0.000228   0.004064  -0.005379  -0.035352  -0.030133
     2  C   -0.000029   0.000005  -0.000122   0.000042  -0.005578  -0.005147
     3  C    0.000000   0.000000   0.000001   0.000001   0.000067   0.000015
     4  C    0.000000   0.000000   0.000000   0.000000   0.000000  -0.000003
     5  C    0.000000   0.000000   0.000000   0.000000   0.000000   0.000000
     6  C   -0.004315   0.004599   0.000122  -0.000847  -0.006379   0.005111
     7  C   -0.038283  -0.032030   0.004804  -0.004549  -0.000388   0.000097
     8  C    0.370084   0.368595  -0.032447  -0.038157  -0.004676   0.004666
     9  C   -0.038259  -0.032221   0.366956   0.369487  -0.037673  -0.031344
    10  C   -0.004385   0.004624  -0.029915  -0.036624   0.364173   0.363405
    11  H    0.000001   0.000000  -0.000006  -0.000001  -0.000290   0.005912
    12  H    0.000000   0.000000   0.000000  -0.000002   0.000009   0.000001
    13  H    0.000000   0.000000   0.000000   0.000000   0.000003   0.000000
    14  H    0.000000   0.000000   0.000000   0.000000   0.000001  -0.000001
    15  H    0.000000   0.000000   0.000000   0.000000   0.000000   0.000000
    16  H    0.000000   0.000000   0.000000   0.000000   0.000000   0.000000
    17  H    0.000000   0.000000   0.000000   0.000000   0.000000   0.000000
    18  H    0.000000   0.000000   0.000000   0.000000  -0.000002   0.000001
    19  H   -0.000005   0.000000   0.000003   0.000005   0.005186  -0.000298
    20  H    0.000162  -0.000024  -0.000074   0.004963   0.006545  -0.005148
    21  H    0.004673  -0.000047  -0.000032   0.000154   0.004723  -0.000064
    22  H   -0.000046  -0.000173   0.000014  -0.000032  -0.000064  -0.000163
    23  H   -0.004869  -0.002576  -0.000175  -0.000062  -0.000036   0.000014
    24  H    0.006167  -0.004839  -0.000061   0.004860   0.000157  -0.000031
    25  H    0.609189  -0.036391  -0.004805   0.006157   0.004830  -0.000048
    26  H   -0.036391   0.604470  -0.002692  -0.004731  -0.000040  -0.000176
    27  H   -0.004805  -0.002692   0.605268  -0.036467  -0.004763  -0.002726
    28  H    0.006157  -0.004731  -0.036467   0.608800   0.006118  -0.004785
    29  H    0.004830  -0.000040  -0.004763   0.006118   0.610950  -0.037071
    30  H   -0.000048  -0.000176  -0.002726  -0.004785  -0.037071   0.606412
 Mulliken charges:
               1
     1  C   -0.065996
     2  C   -0.267573
     3  C   -0.265417
     4  C   -0.255580
     5  C   -0.467916
     6  C   -0.276882
     7  C   -0.271553
     8  C   -0.264944
     9  C   -0.270752
    10  C   -0.273468
    11  H    0.128957
    12  H    0.131134
    13  H    0.138610
    14  H    0.135110
    15  H    0.147874
    16  H    0.148531
    17  H    0.148437
    18  H    0.135332
    19  H    0.129859
    20  H    0.113890
    21  H    0.129262
    22  H    0.137990
    23  H    0.133458
    24  H    0.131943
    25  H    0.131115
    26  H    0.133420
    27  H    0.133054
    28  H    0.131052
    29  H    0.129549
    30  H    0.131505
 Sum of Mulliken charges =   0.00000
 Mulliken charges with hydrogens summed into heavy atoms:
               1
     1  C    0.047893
     2  C   -0.008757
     3  C    0.004327
     4  C    0.014862
     5  C   -0.023075
     6  C   -0.009630
     7  C   -0.006152
     8  C   -0.000409
     9  C   -0.006645
    10  C   -0.012414
 Electronic spatial extent (au):  <R**2>=           2537.5834
 Charge=              0.0000 electrons
 Dipole moment (field-independent basis, Debye):
    X=             -0.0374    Y=             -0.0076    Z=              0.0150  Tot=              0.0411
 Quadrupole moment (field-independent basis, Debye-Ang):
   XX=            -68.0212   YY=            -66.6891   ZZ=            -65.3096
   XY=             -0.3717   XZ=             -0.0351   YZ=             -0.3797
 Traceless Quadrupole moment (field-independent basis, Debye-Ang):
   XX=             -1.3479   YY=             -0.0158   ZZ=              1.3637
   XY=             -0.3717   XZ=             -0.0351   YZ=             -0.3797
 Octapole moment (field-independent basis, Debye-Ang**2):
  XXX=             -4.6482  YYY=              0.1850  ZZZ=              0.1211  XYY=              0.4223
  XXY=             -2.7662  XXZ=             -1.2282  XZZ=              0.0613  YZZ=              0.1021
  YYZ=              0.1161  XYZ=             -1.2993
 Hexadecapole moment (field-independent basis, Debye-Ang**3):
 XXXX=          -2947.4970 YYYY=           -457.3940 ZZZZ=           -161.9905 XXXY=            -19.1357
 XXXZ=            -10.2170 YYYX=              0.4919 YYYZ=             -4.8150 ZZZX=              1.3795
 ZZZY=              0.9857 XXYY=           -562.4068 XXZZ=           -505.9026 YYZZ=           -105.1570
 XXYZ=             -1.2017 YYXZ=              1.3158 ZZXY=             -0.3782
 N-N= 5.568212867022D+02 E-N=-2.023027797024D+03  KE= 3.906369705770D+02
 No NMR shielding tensors so no spin-rotation constants.
 Leave Link  601 at Thu Jul 21 12:01:51 2016, MaxMem=  2013265920 cpu:         1.3
 (Enter /public/apps/gaussian//g09/l701.exe)
 Compute integral first derivatives.
 ... and contract with generalized density number  0.
 Leave Link  701 at Thu Jul 21 12:01:52 2016, MaxMem=  2013265920 cpu:         1.1
 (Enter /public/apps/gaussian//g09/l702.exe)
 L702 exits ... SP integral derivatives will be done elsewhere.
 Leave Link  702 at Thu Jul 21 12:01:52 2016, MaxMem=  2013265920 cpu:         0.1
 (Enter /public/apps/gaussian//g09/l703.exe)
[...]
 0000015,0.00000097,0.00000983,-0.00000710,-0.00000381,0.00000664,0.000
 00474,-0.00000774,-0.00000305,-0.00000395,0.00000234,-0.00000613,0.000
 00161,-0.00001224,-0.00010710,-0.00001811,-0.00011581,0.00030708,0.000
 48711,-0.00020013,0.00253574,0.00021333,0.00109564,-0.00029280,-0.0000
 2016,-0.00011522,-0.00654077,-0.00862350,0.02305233,0.02323420,0.08489
 100,0.00147754,0.00059297,-0.00006358,-0.00026909,-0.00012469,0.000295
 30,0.00004478,0.00008996,-0.00005406,-0.00000813,-0.00003155,0.0000160
 8,0.00000442,0.00000397,-0.00001491,0.00373215,0.00638672,-0.01591454,
 0.06177141,0.07519636,-0.24910321,0.00562980,0.00525164,-0.01598565,0.
 00005006,0.00138527,0.00005660,-0.00020279,-0.00028279,0.00004524,-0.0
 0009401,-0.00004277,0.00002015,-0.00006313,-0.00002789,0.00004260,0.00
 003067,-0.00006100,-0.00004281,-0.00001380,0.00000043,-0.00000722,-0.0
 0000583,0.00000311,0.00000305,-0.00000835,-0.00000435,0.00000926,0.000
 00230,-0.00000105,-0.00000265,0.00001031,-0.00000316,0.00001861,0.0001
 7161,-0.00006337,0.00024147,-0.00073286,-0.00083484,0.00032345,-0.0031
 5244,0.00106202,-0.00050697,-0.00022033,0.00009881,0.00094849,-0.00095
 354,-0.00116857,0.00523183,-0.06830028,-0.08325250,0.27308899,-0.00022
 335,0.00008725,-0.00019087,-0.00003761,-0.00000509,0.00005039,-0.00001
 779,-0.00001194,-0.00001539,-0.00000804,0.00000625,0.00000391,-0.00000
 223,0.00000106,0.00000258,0.00043275,-0.00117706,0.00090838,-0.0062738
 9,-0.00531716,0.01376854,-0.08364819,-0.03175635,0.07556962,-0.0087445
 3,-0.00867653,0.01821407,0.00091029,0.00010483,0.00168712,-0.00000456,
 0.00001084,-0.00000858,0.00001426,-0.00000095,-0.00001321,0.00000219,0
 .00000779,0.00000648,0.00000355,0.00000086,0.00000226,0.00000165,-0.00
 000108,-0.00000003,0.00000243,0.00000086,-0.00000382,-0.00000057,0.,0.
 00000077,-0.00000118,0.00000312,-0.00000609,-0.00002375,0.00003262,-0.
 00005879,0.00021815,0.00004064,-0.00016710,-0.00026694,0.00041992,-0.0
 0057553,0.00025394,0.00009991,-0.00029184,0.00066259,0.00007774,-0.000
 61921,-0.00072085,0.00241652,0.00163820,0.08813470,0.00000073,-0.00015
 114,-0.00015936,-0.00001633,0.00009639,0.00007877,-0.00002225,0.000006
 77,-0.00003673,-0.00000234,0.00000544,0.00001937,-0.00000511,-0.000001
 59,-0.00000781,-0.00084888,0.00120812,-0.00043753,0.00990204,0.0086025
 3,-0.02334381,-0.03190430,-0.08111562,0.07890285,-0.01034682,-0.011808
 87,0.02321014,0.00131157,0.00067336,0.00065164,0.00002575,0.00000734,0
 .00001837,-0.00000284,-0.00000557,0.00000021,-0.00000054,0.00000683,0.
 00000011,0.00000094,0.00000011,0.00000113,-0.00000502,0.00000333,0.000
 00131,-0.00000016,-0.00000106,0.00000016,0.00000132,0.00000247,0.00000
 049,0.00000088,0.00000175,-0.00000166,-0.00000356,0.00001424,-0.000005
 41,0.00003047,-0.00014222,-0.00001192,-0.00003439,-0.00022424,0.000508
 11,-0.00039787,0.00002385,0.00006766,-0.00063499,0.00122351,0.00050691
 ,0.00326911,-0.00333747,-0.00293714,0.03696586,0.09179608,-0.00001062,
 -0.00018605,0.00015398,0.00003096,0.00006461,-0.00004346,0.00001106,0.
 00000895,0.00001930,-0.00000473,0.00000063,-0.00002548,0.00000691,0.00
 000228,0.00000949,-0.00080687,0.00077077,0.00043986,0.00637204,0.00555
 770,-0.01662791,0.07583560,0.07888140,-0.23194851,-0.00292597,-0.00255
 220,0.00613066,0.00002984,-0.00023953,0.00056089,0.00003272,0.00000488
 ,0.00002259,-0.00000914,-0.00000536,0.00000860,-0.00000598,0.00001061,
 -0.00000596,0.00000390,0.00000029,0.00000267,0.00001038,-0.00000511,0.
 00000138,-0.00000456,-0.00000140,0.00000104,-0.00000215,-0.00000007,-0
 .00000421,0.00000222,-0.00000475,0.00001122,0.00001122,-0.00001697,0.0
 0002818,-0.00014342,-0.00001133,-0.00008072,0.00052125,-0.00036068,0.0
 0086901,-0.00020070,-0.00020189,0.00028826,-0.00053890,-0.00022373,0.0
 0034090,0.00175572,-0.00331099,-0.00051548,-0.08548860,-0.08363478,0.2
 5327543,0.00078408,-0.00013573,-0.00002971,0.00004742,0.00000899,0.000
 11534,0.00000953,0.00008389,-0.00007724,0.00002003,-0.00001334,0.00005
 850,-0.00001207,-0.00000577,-0.00003557,-0.00000307,0.00222638,0.00292
 930,-0.01191089,0.00492143,-0.00811009,-0.20149832,0.06653220,-0.10555
 524,-0.01637547,0.00723036,-0.01123250,-0.00106481,-0.00474662,0.00020
 300,0.00002760,-0.00001552,-0.00000841,-0.00000856,-0.00000904,0.00001
 299,-0.00001551,-0.00004251,0.00000468,-0.00001481,-0.00000141,-0.0000
 1188,-0.00002788,0.00001543,-0.00000018,0.00000122,-0.00000211,0.00000
 949,0.00000649,0.00000236,0.00000595,-0.00000258,0.00000409,-0.0000071
 1,0.00000575,0.00002415,-0.00001694,-0.00009186,-0.00001272,0.00007054
 ,0.00008411,0.00005399,-0.00016533,-0.00075513,0.00030660,-0.00060093,
 0.00071496,0.00014059,0.00017999,0.00014324,-0.00059785,0.00015909,0.0
 1043354,-0.00406008,0.00610359,0.21922970,-0.00020520,-0.00067480,-0.0
 0030757,-0.00005555,0.00022588,0.00011673,-0.00002814,-0.00007723,-0.0
 0002890,-0.00001699,0.00006715,0.00000802,-0.00000768,-0.00000032,0.00
 000402,0.00137297,-0.00335556,-0.00431006,0.01894132,-0.00839868,0.014
 78512,0.06699638,-0.07711184,0.04752727,-0.02143556,0.00974407,-0.0151
 4406,-0.00257670,-0.00465484,-0.00028155,0.00018039,0.00003930,0.00007
 207,-0.00000089,0.00000624,-0.00000173,-0.00002800,0.00013784,0.000025
 05,0.00003342,-0.00000057,0.00001580,0.00000858,-0.00000223,0.00000343
 ,-0.00000187,0.00000028,-0.00000373,-0.00000416,0.00000630,-0.00000195
 ,0.00000230,-0.00000640,0.00000376,-0.00000919,-0.00001799,-0.00002309
 ,0.00003504,0.00010779,0.00004868,-0.00044046,0.00020549,-0.00022390,0
 .00170152,-0.00039218,0.00062193,-0.00064513,0.00031522,0.00059261,-0.
 00050377,0.00110889,-0.00021377,0.00915913,-0.00453284,0.00618847,-0.0
 7270199,0.08475596,-0.00003528,-0.00031082,-0.00018562,-0.00000097,0.0
 0010544,0.00003514,-0.00000875,-0.00004516,-0.00003210,0.00000170,0.00
 003607,0.00002118,-0.00000832,-0.00000358,-0.00000960,0.00113226,-0.00
 237406,-0.00179362,0.01531639,-0.00633957,0.00986827,-0.10638495,0.047
 50652,-0.12412990,-0.00363727,0.00274236,-0.00395798,-0.00062952,-0.00
 193239,0.00057507,0.00006613,0.00001472,0.00004058,-0.00000251,0.00000
 472,0.00000260,-0.00001399,0.00006236,0.00001012,0.00001185,-0.0000022
 4,0.00000566,-0.00000728,0.00000526,0.00000036,-0.00000006,-0.00000045
 ,0.00000227,0.00000059,0.00000398,0.00000122,0.00000060,-0.00000262,0.
 00000059,-0.00000345,-0.00000753,0.00000004,-0.00001691,0.00005747,0.0
 0001314,0.00011325,-0.00026736,0.00029336,0.00074982,-0.00048496,0.000
 55984,-0.00051926,0.00075303,0.00048629,-0.00027716,0.00070904,0.00097
 829,-0.02200051,0.00924114,-0.01519240,0.11621299,-0.04908007,0.131431
 75,-0.00374908,0.00028370,-0.00490247,-0.00023450,0.00148005,0.0013103
 2,-0.00039403,-0.00001138,-0.00061979,-0.00003150,0.00017079,0.0002558
 4,-0.00007786,-0.00001202,-0.00009950,-0.00041815,-0.00033465,-0.00022
 002,-0.00323381,-0.00301666,-0.00036458,0.01138019,-0.01624103,-0.0129
 3022,-0.10411518,0.08377932,0.06590406,-0.01312079,0.01906833,0.016025
 70,0.00002903,-0.00007530,0.00006491,0.00000414,-0.00002416,0.00002463
 ,0.00001625,0.00006026,0.00001650,-0.00000478,-0.00001633,-0.00000221,
 -0.00005383,0.00003975,0.00001354,0.00000244,-0.00000315,0.00001277,0.
 00000876,0.00000719,0.00000643,0.00000562,0.00000469,-0.00001233,-0.00
 003545,0.00008109,-0.00012540,0.00025850,-0.00040229,-0.00020543,0.000
 09973,0.00006635,0.00003784,0.00016937,0.00009331,0.00012487,0.0006354
 0,-0.00122337,-0.00064061,-0.00006949,0.00010855,-0.00008329,0.0008657
 8,0.00082099,0.00027908,0.00084491,0.00087541,0.00006967,0.11435965,0.
 00127257,0.00081109,0.00227342,0.00011003,-0.00030585,-0.00072917,0.00
 014112,-0.00003430,0.00027171,-0.00000193,-0.00005495,-0.00012358,0.00
 003160,0.00000297,0.00005149,-0.00037154,0.00069232,-0.00000936,-0.005
 22502,-0.00260143,0.00009601,0.01226998,-0.01790849,-0.01381646,0.0834
 4528,-0.17342878,-0.09600290,0.00495135,-0.00766432,-0.00533404,0.0000
 4511,0.00003810,0.00001105,0.00000107,0.00001204,-0.00001098,-0.000009
 89,0.00001105,-0.00000651,0.00001313,0.00000975,0.00000749,0.00003136,
 -0.00002005,-0.00000416,-0.00000302,0.00000151,-0.00000740,-0.00000553
 ,0.00000111,-0.00000468,-0.00000163,-0.00000688,0.00001022,-0.00003213
 ,-0.00003741,0.00002484,0.00009778,0.00004598,-0.00022726,0.00002668,-
 0.00006646,0.00008025,0.00007556,0.00001470,0.00000410,0.00086764,-0.0
 0123894,-0.00087096,0.00001436,0.00017878,-0.00016706,0.00047254,0.000
 61960,0.00074414,-0.00018369,0.00096773,-0.00004438,-0.09080611,0.1884
 3212,-0.00239923,0.00046101,-0.00198278,-0.00046982,0.00056390,0.00079
 226,-0.00023952,0.00003958,-0.00027148,-0.00003171,0.00007618,0.000091
 53,-0.00003125,0.00000147,-0.00003361,-0.00022004,0.00001273,-0.000142
 69,-0.00183131,-0.00103301,0.00056089,0.00327190,-0.00298684,-0.003885
 34,0.06605372,-0.09668821,-0.12537337,-0.00910625,0.01396347,0.0099126
 0,0.00002574,-0.00002428,0.00002773,-0.00000020,-0.00001739,0.00000163
 ,0.00000956,0.00002829,0.00000479,0.00000373,-0.00000405,0.00000198,-0
 .00001123,0.00001035,0.00000821,-0.00000092,-0.00000201,0.00000125,0.0
 0000146,0.00000338,0.,0.00000257,0.00000262,-0.00000414,0.00008360,-0.
 00000529,0.00000198,-0.00025918,0.00002961,0.00034645,0.00006260,-0.00
 001113,0.00002403,0.00010520,0.00002283,0.00001479,0.00036434,-0.00067
 776,0.00005213,-0.00021698,0.00038048,0.00045957,-0.00043324,0.0001008
 2,0.00074328,-0.00006679,0.00005996,-0.00028352,-0.06924202,0.10611173
 ,0.13288283,0.00155792,-0.00060863,-0.00082019,-0.00006173,-0.00009509
 ,-0.00014690,0.00000498,-0.00007585,0.00010346,0.00001111,-0.00000654,
 -0.00000488,0.00000157,-0.00000074,0.00000049,-0.00011418,-0.00000336,
 -0.00009932,0.00038283,0.00119643,0.00033744,-0.00817817,-0.01031801,0
 .01950010,-0.06894293,-0.02918534,0.06278723,0.00716349,0.01254939,-0.
 02548609,0.00002531,-0.00000386,-0.00003050,-0.00003282,0.00002493,0.0
 0003155,-0.00000331,0.00001904,0.00000748,0.00000395,0.00000164,-0.000
 00040,0.00000027,0.00000012,-0.00000078,-0.00000052,0.00000086,0.00000
 038,-0.00000043,0.00000177,0.00000090,0.00000269,-0.00000585,0.0000008
 1,-0.00003012,-0.00010338,0.00019559,-0.00027428,-0.00004615,0.0005566
 7,-0.00014611,-0.00002761,0.00002878,0.00010234,0.00001974,0.00005637,
 -0.00005066,0.00025704,-0.00019405,0.00048516,-0.00021579,-0.00065020,
 -0.00214269,-0.00407488,-0.00147430,0.00038369,0.00072553,0.00018567,-
 0.00484977,-0.00690360,0.01300398,0.07769327,-0.00103589,0.00018560,0.
 00098569,0.00020504,0.00006426,-0.00012108,0.00000051,-0.00001034,-0.0
 0001355,0.00000473,0.00000798,-0.00000316,-0.00000226,-0.00000350,0.00
 000225,0.00009213,-0.00021817,-0.00023082,-0.00000282,0.00111049,0.001
 74499,-0.00834081,-0.01209777,0.02216353,-0.02895908,-0.09571101,0.089
 29883,-0.00273523,-0.00500128,0.00934753,-0.00004271,-0.00000859,0.000
 00325,0.00003316,-0.00000489,-0.00002989,0.00000238,0.00000218,-0.0000
 0274,-0.00000153,-0.00000102,0.00000171,-0.00000213,0.00000112,-0.0000
 0106,0.00000302,0.00000096,-0.00000196,0.00000062,0.00000026,0.0000010
 2,-0.00000453,0.00000397,-0.00000624,-0.00006491,0.00007123,-0.0001447
 3,0.00040025,-0.00019617,-0.00047686,-0.00003985,0.00021726,-0.0001600
 1,0.00006295,-0.00007267,-0.00000544,0.00005257,0.00041277,-0.00036173
 ,0.00032195,-0.00036434,-0.00088899,-0.00339300,-0.00350762,-0.0012725
 7,0.00038958,0.00108785,-0.00040481,0.00621358,0.01089175,-0.01993442,
 0.03486790,0.10231173,0.00097837,-0.00069292,0.00009626,-0.00022443,-0
 .00009210,0.00035841,-0.00004475,-0.00000347,-0.00003616,0.00000948,0.
 00001958,0.00003892,-0.00000953,0.00000038,-0.00002552,-0.00013878,0.0
 0001955,0.00014662,-0.00027211,-0.00004035,0.00059186,-0.00194323,-0.0
 0337645,0.00610327,0.06265879,0.08962416,-0.23213038,0.00406361,0.0073
 0290,-0.01613344,0.00002403,-0.00000260,-0.00004210,-0.00004036,0.0000
 1898,0.00003347,-0.00000171,0.00000628,0.00000870,-0.00000369,-0.00000
 352,-0.00000824,-0.00001337,0.00000905,0.00000146,-0.00000240,-0.00000
 116,0.00000955,0.00000147,-0.00000003,0.00000182,0.,-0.00000630,0.0000
 0338,0.00016804,-0.00018159,0.00013993,-0.00055594,0.00043213,0.000972
 06,0.00002523,-0.00016365,-0.00007383,0.00003324,0.00008376,0.00001620
 ,-0.00008738,0.00015696,0.00021420,-0.00024171,0.00040240,0.00026298,-
 0.00096949,-0.00169195,0.00107046,0.00068273,0.00040953,0.00074345,0.0
 0498593,0.00726811,-0.01540196,-0.06541737,-0.10002215,0.25326352,-0.0
 0636589,-0.00538889,0.01549751,0.00080526,-0.00109798,0.00104691,-0.00
 011099,0.00012345,-0.00014481,0.00000018,0.00002547,-0.00000798,0.0000
 0024,0.00000048,-0.00000909,0.00022541,-0.00070585,-0.00089675,-0.0001
 3871,0.00004841,-0.00003541,0.00177118,0.00067507,-0.00018442,0.006686
 37,0.01035583,-0.02631454,-0.06859087,-0.02599906,0.06170579,-0.000042
 34,-0.00009835,0.00004371,0.00011667,-0.00002731,-0.00022081,0.0000254
 9,-0.00003635,-0.00002248,-0.00000743,-0.00000389,0.00000537,-0.000004
 36,0.00000240,0.00000257,0.00000851,-0.00000385,-0.00000616,0.00000156
 ,-0.00000101,0.00000089,-0.00002362,0.00003346,-0.00003397,-0.00010912
 ,0.00066137,-0.00044262,-0.00095391,0.00310135,0.00151115,0.00045688,0
 .00026155,-0.00028649,-0.00004516,0.00003829,-0.00020928,0.00007093,-0
 .00008005,0.00000880,-0.00013252,0.00001881,0.00009793,-0.00016378,-0.
 00031531,0.00043777,0.00015763,0.00016230,0.00042571,0.00125580,-0.000
 39326,0.00072802,-0.00427243,0.00175428,-0.00352395,0.07540507,0.00774
 023,0.00759518,-0.02268795,-0.00071995,0.00110653,-0.00067424,-0.00003
 043,0.00001695,-0.00023569,-0.00004823,-0.00001062,0.00010888,-0.00002
 010,0.00000815,-0.00001411,0.00038406,0.00176070,-0.00047832,0.0000769
 0,-0.00013814,-0.00007091,-0.00040388,0.00030696,-0.00083853,-0.002851
 71,-0.00516393,0.01097691,-0.02598554,-0.07944423,0.07532542,0.0000391
 3,-0.00005145,0.00020183,-0.00003659,-0.00008230,0.00014932,-0.0000018
 6,0.00000082,-0.00000706,0.00000125,-0.00000348,0.00000531,-0.00000652
 ,0.00000460,0.00000253,-0.00000216,-0.00000055,-0.00000363,0.00000115,
 -0.00000233,-0.00000174,0.00002775,-0.00000110,0.00001795,-0.00011300,
 -0.00003310,0.00034150,0.00262696,-0.00304295,-0.00291606,-0.00016197,
 -0.00033985,0.00035834,0.00008489,0.00016490,0.00037054,-0.00008126,0.
 00004621,0.00000731,0.00000909,-0.00011966,0.00009838,0.00030887,0.000
 50811,-0.00015470,0.00005889,-0.00003199,-0.00016056,-0.00029923,-0.00
 002488,-0.00013261,0.00253734,0.00024959,0.00108579,0.02350862,0.08538
 735,0.00619962,0.00536648,-0.01710850,-0.00100970,0.00082864,0.0001477
 9,0.00001254,-0.00028862,0.00037304,0.00000859,-0.00007051,-0.00002851
 ,0.00001773,0.00000562,0.00001788,0.00020627,0.00147011,0.00004417,-0.
 00022547,-0.00026788,0.00003772,0.00140737,0.00032786,0.00013148,0.003
 91333,0.00639951,-0.01578483,0.06151219,0.07544473,-0.24573375,0.00008
 348,-0.00009471,0.00004392,-0.00023892,0.00014510,0.00014935,-0.000002
 54,-0.00001072,-0.00001256,0.00000215,0.00000609,-0.00000328,0.0000146
 0,-0.00000843,-0.00000449,-0.00000663,-0.00000035,0.00000264,-0.000002
 27,-0.00000252,-0.00000422,0.00002660,-0.00002434,0.00002479,0.0005570
 2,-0.00057761,0.00089635,0.00155570,-0.00302234,-0.00099694,-0.0006395
 4,-0.00088069,0.00032735,-0.00008989,-0.00019134,0.00045365,-0.0000550
 2,-0.00006772,-0.00006231,0.00009012,0.00009980,0.00024370,-0.00068897
 ,-0.00077969,0.00025994,-0.00013780,-0.00010476,0.00046267,-0.00023342
 ,0.00011698,0.00094540,-0.00308033,0.00103039,-0.00053489,-0.06806650,
 -0.08350083,0.27042680,0.00937237,0.01278359,0.00181084,0.00122758,0.0
 0084285,0.00043688,0.00025958,-0.00006033,0.00011788,-0.00000870,-0.00
 005602,-0.00006126,0.00001974,-0.00000225,0.00002443,-0.00144843,0.002
 31339,0.00122222,-0.00020750,0.00036497,0.00027793,-0.00347774,0.00429
 074,-0.00314988,-0.01728886,-0.02138693,-0.00330435,-0.14798027,-0.122
 73308,-0.02355161,-0.00015267,-0.00006910,0.00002873,-0.00000593,-0.00
 000193,-0.00000353,0.00000970,0.00004081,0.00001660,-0.00000024,0.0000
 0834,-0.00000224,0.00001166,-0.00000997,-0.00000382,-0.00000134,0.0000
 0030,-0.00000312,0.00000084,0.00000128,-0.00000021,-0.00000071,-0.0000
 0402,0.00000514,-0.00007045,0.00004731,-0.00006175,0.00067528,-0.00058
 184,-0.00053609,-0.00001650,0.00009591,-0.00005259,0.00055036,0.000823
 69,0.00030826,0.00009755,-0.00014543,-0.00002923,0.00008018,-0.0000743
 9,-0.00006220,0.00034413,0.00034600,0.00017166,-0.00111295,-0.00153305
 ,-0.00074046,0.00045268,0.00007018,0.00084327,0.00128157,0.00022009,-0
 .00014072,-0.00602606,-0.00664269,-0.00113031,0.16341512,-0.01528302,-
 0.01950820,-0.00256951,-0.00207970,-0.00003684,-0.00031635,0.00043106,
 0.00038613,0.00000481,0.00000878,-0.00002625,-0.00001168,0.00001298,0.
 00000235,0.00000501,0.00443085,-0.00244391,-0.00299431,0.00053813,-0.0
 0003194,0.00036981,0.00186431,-0.00031951,0.00119708,0.00832126,0.0099
 7276,0.00210109,-0.12229128,-0.19625089,-0.02890494,0.00128446,0.00043
 250,0.00054675,-0.00002552,-0.00004075,-0.00000989,-0.00017755,0.00029
 613,0.00012891,0.00007383,0.00001755,0.00001929,0.00000204,-0.00000472
 ,-0.00000033,-0.00000379,-0.00000235,-0.00000185,-0.00000478,0.0000180
 5,0.00000457,0.00000283,-0.00000308,0.00000134,0.00007540,0.00006471,-
 0.00004377,0.00017848,0.00115979,-0.00017139,0.00024249,0.00039472,0.0
 0015961,-0.00123341,-0.00128427,-0.00071091,-0.00016559,0.00008410,0.0
 0000768,-0.00007107,0.00004113,-0.00006416,0.00012254,0.00002839,-0.00
 005262,0.00052943,0.00048147,0.00021844,-0.00068768,0.00066212,-0.0003
 5140,-0.00052706,0.00057838,-0.00056135,-0.00662000,-0.00866548,-0.001
 34828,0.13105156,0.21399789,-0.01092656,-0.01471811,-0.00367756,-0.000
 57013,0.00081940,0.00005102,-0.00002571,0.00006719,-0.00008448,0.00001
 783,0.00004190,0.00001007,-0.00001050,-0.00000587,0.00000046,0.0027190
 2,-0.00161286,-0.00132029,0.00025365,0.00026598,0.00030686,-0.00212757
 ,0.00236971,-0.00120091,-0.01134136,-0.01337436,-0.00351218,-0.0233197
 5,-0.02853101,-0.05547587,0.00013112,0.00026369,0.00044735,0.00000852,
 -0.00001843,-0.00005458,-0.00003479,0.00010217,0.00000874,0.00001151,-
 0.00000376,0.00001528,-0.00000046,0.00000090,0.00000146,0.00000212,-0.
 00000215,-0.00000563,0.00000081,0.00000332,-0.00000315,0.00000157,0.00
 000637,-0.00000431,0.00007218,0.00010182,0.00006540,-0.00059588,0.0005
 0924,0.00035331,-0.00020256,-0.00036631,0.00022741,-0.00067578,-0.0008
 9952,0.00005019,-0.00000125,0.00002132,-0.00000197,0.00000726,0.000012
 47,-0.00007458,-0.00032107,-0.00026143,0.00020700,-0.00069245,-0.00075
 733,0.00005286,0.00054920,0.00028734,0.00050556,0.00060838,-0.00049699
 ,0.00031001,0.01889314,0.02282693,0.00528565,0.02756953,0.03334837,0.0
 5751687\\0.00000255,-0.00000062,0.00000331,-0.00000122,-0.00000088,-0.
 00000579,0.00000306,0.00000712,0.00000302,0.00000334,0.00000387,-0.000
 00905,0.00000247,0.00000652,-0.00000185,-0.00000361,-0.00000275,0.0000
 0071,-0.00000094,-0.00000529,0.00000288,-0.00000543,-0.00000561,0.0000
 0396,-0.00000286,-0.00000243,0.00000237,-0.00000289,-0.00000100,-0.000
 00082,0.00000073,0.00000322,-0.00000130,-0.00000155,0.00000198,-0.0000
 0445,0.00000213,0.00000131,-0.00000107,0.00000254,0.00000676,-0.000003
 58,0.00000532,0.00000871,-0.00000702,0.00000136,0.00000516,-0.00000677
 ,0.00000562,0.00000400,-0.00000273,0.00000478,0.00000577,-0.00000120,0
 .00000377,0.00000205,-0.00000026,-0.00000453,-0.00000144,0.00000175,0.
 00000411,-0.00000240,0.00000294,0.00000007,-0.00000222,0.00000232,-0.0
 0000055,-0.00000566,0.00000495,-0.00000348,-0.00000560,0.00000153,-0.0
 0000146,-0.00000557,0.00000749,-0.00000385,-0.00000791,0.00000670,-0.0
 0000398,-0.00000373,0.00000141,-0.00000525,-0.00000313,0.00000053,0.00
 000163,-0.00000093,0.00000026,-0.00000188,0.00000070,-0.00000027\\\@


 Ideas are like rabbits. You get a couple and learn
 how to handle them, and pretty soon you have a dozen.
                                    -- John Steinbeck
 Job cpu time:       0 days  0 hours 15 minutes 21.3 seconds.
 File lengths (MBytes):  RWF=    121 Int=      0 D2E=      0 Chk=      4 Scr=      1
 Normal termination of Gaussian 09 at Thu Jul 21 12:05:04 2016.
