 Entering Gaussian System, Link 0=g09
 Initial command:
 /public/apps/gaussian//g09/l1.exe "/tmp/836704.pbs/Gau-24068.inp" -scrdir="/tmp/836704.pbs/"
 Entering Link 1 = /public/apps/gaussian//g09/l1.exe PID=     24084.
  
 Copyright (c) 1988,1990,1992,1993,1995,1998,2003,2009,2013,
            Gaussian, Inc.  All Rights Reserved.
  
 This is part of the Gaussian(R) 09 program.  It is based on
 the Gaussian(R) 03 system (copyright 2003, Gaussian, Inc.),
 the Gaussian(R) 98 system (copyright 1998, Gaussian, Inc.),
 the Gaussian(R) 94 system (copyright 1995, Gaussian, Inc.),
 the Gaussian 92(TM) system (copyright 1992, Gaussian, Inc.),
 the Gaussian 90(TM) system (copyright 1990, Gaussian, Inc.),
 the Gaussian 88(TM) system (copyright 1988, Gaussian, Inc.),
 the Gaussian 86(TM) system (copyright 1986, Carnegie Mellon
 University), and the Gaussian 82(TM) system (copyright 1983,
 Carnegie Mellon University). Gaussian is a federally registered
 trademark of Gaussian, Inc.
  
 This software contains proprietary and confidential information,
 including trade secrets, belonging to Gaussian, Inc.
  
 This software is provided under written license and may be
 used, copied, transmitted, or stored only in accord with that
 written license.
  
 The following legend is applicable only to US Government
 contracts under FAR:
  
                    RESTRICTED RIGHTS LEGEND
  
 Use, reproduction and disclosure by the US Government is
 subject to restrictions as set forth in subparagraphs (a)
 and (c) of the Commercial Computer Software - Restricted
 Rights clause in FAR 52.227-19.
  
 Gaussian, Inc.
 340 Quinnipiac St., Bldg. 40, Wallingford CT 06492
  
  
 ---------------------------------------------------------------
 Warning -- This program may not be used in any manner that
 competes with the business of Gaussian, Inc. or will provide
 assistance to any competitor of Gaussian, Inc.  The licensee
 of this program is prohibited from giving any competitor of
 Gaussian, Inc. access to this program.  By using this program,
 the user acknowledges that Gaussian, Inc. is engaged in the
 business of creating and licensing software in the field of
 computational chemistry and represents and warrants to the
 licensee that it is not a competitor of Gaussian, Inc. and that
 it will not use this program in any manner prohibited above.
 ---------------------------------------------------------------
  

 Cite this work as:
 Gaussian 09, Revision D.01,
 M. J. Frisch, G. W. Trucks, H. B. Schlegel, G. E. Scuseria, 
 M. A. Robb, J. R. Cheeseman, G. Scalmani, V. Barone, B. Mennucci, 
 G. A. Petersson, H. Nakatsuji, M. Caricato, X. Li, H. P. Hratchian, 
 A. F. Izmaylov, J. Bloino, G. Zheng, J. L. Sonnenberg, M. Hada, 
 M. Ehara, K. Toyota, R. Fukuda, J. Hasegawa, M. Ishida, T. Nakajima, 
 Y. Honda, O. Kitao, H. Nakai, T. Vreven, J. A. Montgomery, Jr., 
 J. E. Peralta, F. Ogliaro, M. Bearpark, J. J. Heyd, E. Brothers, 
 K. N. Kudin, V. N. Staroverov, T. Keith, R. Kobayashi, J. Normand, 
 K. Raghavachari, A. Rendell, J. C. Burant, S. S. Iyengar, J. Tomasi, 
 M. Cossi, N. Rega, J. M. Millam, M. Klene, J. E. Knox, J. B. Cross, 
 V. Bakken, C. Adamo, J. Jaramillo, R. Gomperts, R. E. Stratmann, 
 O. Yazyev, A. J. Austin, R. Cammi, C. Pomelli, J. W. Ochterski, 
 R. L. Martin, K. Morokuma, V. G. Zakrzewski, G. A. Voth, 
 P. Salvador, J. J. Dannenberg, S. Dapprich, A. D. Daniels, 
 O. Farkas, J. B. Foresman, J. V. Ortiz, J. Cioslowski, 
 and D. J. Fox, Gaussian, Inc., Wallingford CT, 2013.
 
 ******************************************
 Gaussian 09:  ES64L-G09RevD.01 24-Apr-2013
                11-Apr-2017 
 ******************************************
 %chk=1.chk
 %mem=15GB
 %nproc=8
 Will use up to    8 processors via shared memory.
 -------------------------------------------------------------
 #P b3lyp/gen opt freq gfinput scf=(xqc,maxcon=128,maxcyc=128)
 -------------------------------------------------------------
 1/14=-1,18=20,19=15,26=3,38=1/1,3;
 2/9=110,12=2,17=6,18=5,40=1/2;
 3/5=7,11=2,16=1,24=10,25=1,30=1,71=1,74=-5/1,2,3;
 4//1;
 5/5=2,7=128,8=3,13=1,38=5,85=128/2,8;
 6/7=2,8=2,9=2,10=2,28=1/1;
 7//1,2,3,16;
 1/14=-1,18=20,19=15,26=3/3(2);
 2/9=110/2;
 99//99;
 2/9=110/2;
 3/5=7,6=1,11=2,16=1,25=1,30=1,71=1,74=-5,82=7/1,2,3;
 4/5=5,16=3,69=1/1;
 5/5=2,7=128,8=3,13=1,38=5,85=128/2,8;
 7//1,2,3,16;
 1/14=-1,18=20,19=15,26=3/3(-5);
 2/9=110/2;
 6/7=2,8=2,9=2,10=2,19=2,28=1/1;
 99/9=1/99;
 Leave Link    1 at Tue Apr 11 13:46:33 2017, MaxMem=  2013265920 cpu:        50.9
 (Enter /public/apps/gaussian//g09/l101.exe)
 -----------
 ethanol.car
 -----------
 Symbolic Z-matrix:
 Charge =  0 Multiplicity = 1
 C                    -0.73199   0.02538  -0.07048 
 C                     0.62856   0.28072   0.13855 
 H                    -1.20731   0.84733  -0.10159 
 H                    -0.84474  -0.43695  -0.8927 
 H                    -1.06714  -0.50751   0.641 
 H                     1.10389  -0.54123   0.16966 
 O                     1.08718   1.00993  -0.83505 
 H                     0.74132   0.74305   0.96077 
 H                     1.91323   1.16496  -0.70814 
 
 NAtoms=      9 NQM=        9 NQMF=       0 NMMI=      0 NMMIF=      0
                NMic=       0 NMicF=      0.
                    Isotopes and Nuclear Properties:
 (Nuclear quadrupole moments (NQMom) in fm**2, nuclear magnetic moments (NMagM)
  in nuclear magnetons)

  Atom         1           2           3           4           5           6           7           8           9
 IAtWgt=          12          12           1           1           1           1          16           1           1
 AtmWgt=  12.0000000  12.0000000   1.0078250   1.0078250   1.0078250   1.0078250  15.9949146   1.0078250   1.0078250
 NucSpn=           0           0           1           1           1           1           0           1           1
 AtZEff=   0.0000000   0.0000000   0.0000000   0.0000000   0.0000000   0.0000000   0.0000000   0.0000000   0.0000000
 NQMom=    0.0000000   0.0000000   0.0000000   0.0000000   0.0000000   0.0000000   0.0000000   0.0000000   0.0000000
 NMagM=    0.0000000   0.0000000   2.7928460   2.7928460   2.7928460   2.7928460   0.0000000   2.7928460   2.7928460
 AtZNuc=   6.0000000   6.0000000   1.0000000   1.0000000   1.0000000   1.0000000   8.0000000   1.0000000   1.0000000
 Leave Link  101 at Tue Apr 11 13:46:43 2017, MaxMem=  2013265920 cpu:        10.1
 (Enter /public/apps/gaussian//g09/l103.exe)

 GradGradGradGradGradGradGradGradGradGradGradGradGradGradGradGradGradGrad
 Berny optimization.
 Initialization pass.
                           ----------------------------
                           !    Initial Parameters    !
                           ! (Angstroms and Degrees)  !
 --------------------------                            --------------------------
 ! Name  Definition              Value          Derivative Info.                !
 --------------------------------------------------------------------------------
 ! R1    R(1,2)                  1.4            estimate D2E/DX2                !
 ! R2    R(1,3)                  0.95           estimate D2E/DX2                !
 ! R3    R(1,4)                  0.95           estimate D2E/DX2                !
 ! R4    R(1,5)                  0.95           estimate D2E/DX2                !
 ! R5    R(2,6)                  0.95           estimate D2E/DX2                !
 ! R6    R(2,7)                  1.3            estimate D2E/DX2                !
 ! R7    R(2,8)                  0.95           estimate D2E/DX2                !
 ! R8    R(7,9)                  0.85           estimate D2E/DX2                !
 ! A1    A(2,1,3)              109.471          estimate D2E/DX2                !
 ! A2    A(2,1,4)              109.4711         estimate D2E/DX2                !
 ! A3    A(2,1,5)              109.4713         estimate D2E/DX2                !
 ! A4    A(3,1,4)              109.4712         estimate D2E/DX2                !
 ! A5    A(3,1,5)              109.4714         estimate D2E/DX2                !
 ! A6    A(4,1,5)              109.4713         estimate D2E/DX2                !
 ! A7    A(1,2,6)              109.4713         estimate D2E/DX2                !
 ! A8    A(1,2,7)              109.4709         estimate D2E/DX2                !
 ! A9    A(1,2,8)              109.4713         estimate D2E/DX2                !
 ! A10   A(6,2,7)              109.4713         estimate D2E/DX2                !
 ! A11   A(6,2,8)              109.4713         estimate D2E/DX2                !
 ! A12   A(7,2,8)              109.4713         estimate D2E/DX2                !
 ! A13   A(2,7,9)              109.471          estimate D2E/DX2                !
 ! D1    D(3,1,2,6)           -179.9998         estimate D2E/DX2                !
 ! D2    D(3,1,2,7)            -59.9999         estimate D2E/DX2                !
 ! D3    D(3,1,2,8)             60.0            estimate D2E/DX2                !
 ! D4    D(4,1,2,6)            -60.0            estimate D2E/DX2                !
 ! D5    D(4,1,2,7)             59.9999         estimate D2E/DX2                !
 ! D6    D(4,1,2,8)            179.9998         estimate D2E/DX2                !
 ! D7    D(5,1,2,6)             60.0001         estimate D2E/DX2                !
 ! D8    D(5,1,2,7)            180.0            estimate D2E/DX2                !
 ! D9    D(5,1,2,8)            -60.0001         estimate D2E/DX2                !
 ! D10   D(1,2,7,9)           -180.0            estimate D2E/DX2                !
 ! D11   D(6,2,7,9)            -60.0001         estimate D2E/DX2                !
 ! D12   D(8,2,7,9)             60.0001         estimate D2E/DX2                !
 --------------------------------------------------------------------------------
 Trust Radius=3.00D-01 FncErr=1.00D-07 GrdErr=1.00D-06
 Number of steps in this run=     43 maximum allowed number of steps=    100.
 GradGradGradGradGradGradGradGradGradGradGradGradGradGradGradGradGradGrad

 Leave Link  103 at Tue Apr 11 13:47:00 2017, MaxMem=  2013265920 cpu:         0.1
 (Enter /public/apps/gaussian//g09/l202.exe)
                          Input orientation:                          
 ---------------------------------------------------------------------
 Center     Atomic      Atomic             Coordinates (Angstroms)
 Number     Number       Type             X           Y           Z
 ---------------------------------------------------------------------
      1          6           0       -0.731988    0.025381   -0.070479
      2          6           0        0.628562    0.280718    0.138555
      3          1           0       -1.207310    0.847329   -0.101590
      4          1           0       -0.844743   -0.436945   -0.892696
      5          1           0       -1.067140   -0.507505    0.641002
      6          1           0        1.103889   -0.541230    0.169664
      7          8           0        1.087183    1.009930   -0.835054
      8          1           0        0.741321    0.743046    0.960769
      9          1           0        1.913229    1.164957   -0.708142
 ---------------------------------------------------------------------
                    Distance matrix (angstroms):
                    1          2          3          4          5
     1  C    0.000000
     2  C    1.399997   0.000000
     3  H    0.949999   1.936271   0.000000
     4  H    0.949999   1.936271   1.551343   0.000000
     5  H    0.949999   1.936274   1.551344   1.551344   0.000000
     6  H    1.936275   0.950002   2.709856   2.221857   2.221861
     7  O    2.205288   1.299998   2.414354   2.414354   3.020340
     8  H    1.936273   0.949998   2.221856   2.709853   2.221859
     9  H    2.949988   1.774583   3.194771   3.194771   3.674224
                    6          7          8          9
     6  H    0.000000
     7  O    1.848197   0.000000
     8  H    1.551344   1.848195   0.000000
     9  H    2.082463   0.849996   2.082461   0.000000
 Stoichiometry    C2H6O
 Framework group  C1[X(C2H6O)]
 Deg. of freedom    21
 Full point group                 C1      NOp   1
 Largest Abelian subgroup         C1      NOp   1
 Largest concise Abelian subgroup C1      NOp   1
                         Standard orientation:                         
 ---------------------------------------------------------------------
 Center     Atomic      Atomic             Coordinates (Angstroms)
 Number     Number       Type             X           Y           Z
 ---------------------------------------------------------------------
      1          6           0       -1.135932   -0.201933    0.000000
      2          6           0        0.078605    0.494408   -0.000001
      3          1           0       -1.187899   -0.747948   -0.775671
      4          1           0       -1.187899   -0.747947    0.775672
      5          1           0       -1.856144    0.417578    0.000000
      6          1           0        0.130576    1.040424    0.775672
      7          8           0        1.064151   -0.353350    0.000000
      8          1           0        0.130576    1.040421   -0.775672
      9          1           0        1.801548    0.069426    0.000000
 ---------------------------------------------------------------------
 Rotational constants (GHZ):     44.8874807     11.0657870      9.7042319
 Leave Link  202 at Tue Apr 11 13:47:08 2017, MaxMem=  2013265920 cpu:        24.8
 (Enter /public/apps/gaussian//g09/l301.exe)
 General basis read from cards:  (5D, 7F)
 Centers:       7
 6-31G(d')
 ****
 Centers:       1      2
 6-31G(d')
 ****
 Centers:       3      4      5      6      8      9
 6-31G(d')
 ****
 Ernie: Thresh=  0.10000D-02 Tol=  0.10000D-05 Strict=F.
 AO basis set in the form of general basis input (Overlap normalization):
      1 0
 S   6 1.00       0.000000000000
      0.3047524880D+04  0.1834737132D-02
      0.4573695180D+03  0.1403732281D-01
      0.1039486850D+03  0.6884262226D-01
      0.2921015530D+02  0.2321844432D+00
      0.9286662960D+01  0.4679413484D+00
      0.3163926960D+01  0.3623119853D+00
 SP   3 1.00       0.000000000000
      0.7868272350D+01 -0.1193324198D+00  0.6899906659D-01
      0.1881288540D+01 -0.1608541517D+00  0.3164239610D+00
      0.5442492580D+00  0.1143456438D+01  0.7443082909D+00
 SP   1 1.00       0.000000000000
      0.1687144782D+00  0.1000000000D+01  0.1000000000D+01
 D   1 1.00       0.000000000000
      0.6260000000D+00  0.1000000000D+01
 ****
      2 0
 S   6 1.00       0.000000000000
      0.3047524880D+04  0.1834737132D-02
      0.4573695180D+03  0.1403732281D-01
      0.1039486850D+03  0.6884262226D-01
      0.2921015530D+02  0.2321844432D+00
      0.9286662960D+01  0.4679413484D+00
      0.3163926960D+01  0.3623119853D+00
 SP   3 1.00       0.000000000000
      0.7868272350D+01 -0.1193324198D+00  0.6899906659D-01
      0.1881288540D+01 -0.1608541517D+00  0.3164239610D+00
      0.5442492580D+00  0.1143456438D+01  0.7443082909D+00
 SP   1 1.00       0.000000000000
      0.1687144782D+00  0.1000000000D+01  0.1000000000D+01
 D   1 1.00       0.000000000000
      0.6260000000D+00  0.1000000000D+01
 ****
      3 0
 S   3 1.00       0.000000000000
      0.1873113696D+02  0.3349460434D-01
      0.2825394365D+01  0.2347269535D+00
      0.6401216923D+00  0.8137573261D+00
 S   1 1.00       0.000000000000
      0.1612777588D+00  0.1000000000D+01
 ****
      4 0
 S   3 1.00       0.000000000000
      0.1873113696D+02  0.3349460434D-01
      0.2825394365D+01  0.2347269535D+00
      0.6401216923D+00  0.8137573261D+00
 S   1 1.00       0.000000000000
      0.1612777588D+00  0.1000000000D+01
 ****
      5 0
 S   3 1.00       0.000000000000
      0.1873113696D+02  0.3349460434D-01
      0.2825394365D+01  0.2347269535D+00
      0.6401216923D+00  0.8137573261D+00
 S   1 1.00       0.000000000000
      0.1612777588D+00  0.1000000000D+01
 ****
      6 0
 S   3 1.00       0.000000000000
      0.1873113696D+02  0.3349460434D-01
      0.2825394365D+01  0.2347269535D+00
      0.6401216923D+00  0.8137573261D+00
 S   1 1.00       0.000000000000
      0.1612777588D+00  0.1000000000D+01
 ****
      7 0
 S   6 1.00       0.000000000000
      0.5484671660D+04  0.1831074430D-02
      0.8252349460D+03  0.1395017220D-01
      0.1880469580D+03  0.6844507810D-01
      0.5296450000D+02  0.2327143360D+00
      0.1689757040D+02  0.4701928980D+00
      0.5799635340D+01  0.3585208530D+00
 SP   3 1.00       0.000000000000
      0.1553961625D+02 -0.1107775495D+00  0.7087426823D-01
      0.3599933586D+01 -0.1480262627D+00  0.3397528391D+00
      0.1013761750D+01  0.1130767015D+01  0.7271585773D+00
 SP   1 1.00       0.000000000000
      0.2700058226D+00  0.1000000000D+01  0.1000000000D+01
 D   1 1.00       0.000000000000
      0.1292000000D+01  0.1000000000D+01
 ****
      8 0
 S   3 1.00       0.000000000000
      0.1873113696D+02  0.3349460434D-01
      0.2825394365D+01  0.2347269535D+00
      0.6401216923D+00  0.8137573261D+00
 S   1 1.00       0.000000000000
      0.1612777588D+00  0.1000000000D+01
 ****
      9 0
 S   3 1.00       0.000000000000
      0.1873113696D+02  0.3349460434D-01
      0.2825394365D+01  0.2347269535D+00
      0.6401216923D+00  0.8137573261D+00
 S   1 1.00       0.000000000000
      0.1612777588D+00  0.1000000000D+01
 ****

 There are    57 symmetry adapted cartesian basis functions of A   symmetry.
 There are    54 symmetry adapted basis functions of A   symmetry.
    54 basis functions,   108 primitive gaussians,    57 cartesian basis functions
    13 alpha electrons       13 beta electrons
       nuclear repulsion energy        90.6009316969 Hartrees.
 IExCor=  402 DFT=T Ex+Corr=B3LYP ExCW=0 ScaHFX=  0.200000
 ScaDFX=  0.800000  0.720000  1.000000  0.810000 ScalE2=  1.000000  1.000000
 IRadAn=      0 IRanWt=     -1 IRanGd=            0 ICorTp=0 IEmpDi=  4
 NAtoms=    9 NActive=    9 NUniq=    9 SFac= 1.00D+00 NAtFMM=   60 NAOKFM=F Big=F
 Integral buffers will be    131072 words long.
 Raffenetti 2 integral format.
 Two-electron integral symmetry is turned on.
 Leave Link  301 at Tue Apr 11 13:48:04 2017, MaxMem=  2013265920 cpu:       120.6
 (Enter /public/apps/gaussian//g09/l302.exe)
 NPDir=0 NMtPBC=     1 NCelOv=     1 NCel=       1 NClECP=     1 NCelD=      1
         NCelK=      1 NCelE2=     1 NClLst=     1 CellRange=     0.0.
 One-electron integrals computed using PRISM.
 NBasis=    54 RedAO= T EigKep=  4.19D-03  NBF=    54
 NBsUse=    54 1.00D-06 EigRej= -1.00D+00 NBFU=    54
 Precomputing XC quadrature grid using
 IXCGrd= 4 IRadAn=           0 IRanWt=          -1 IRanGd=           0 AccXCQ= 0.00D+00.
 Generated NRdTot=       0 NPtTot=           0 NUsed=           0 NTot=          32
 NSgBfM=    57    57    57    57    57 MxSgAt=     9 MxSgA2=     9.
 Leave Link  302 at Tue Apr 11 13:48:28 2017, MaxMem=  2013265920 cpu:        14.6
 (Enter /public/apps/gaussian//g09/l303.exe)
 DipDrv:  MaxL=1.
 Leave Link  303 at Tue Apr 11 13:48:35 2017, MaxMem=  2013265920 cpu:         4.0
 (Enter /public/apps/gaussian//g09/l401.exe)
 ExpMin= 1.61D-01 ExpMax= 5.48D+03 ExpMxC= 8.25D+02 IAcc=1 IRadAn=         1 AccDes= 0.00D+00
 Harris functional with IExCor=  402 and IRadAn=       1 diagonalized for initial guess.
 HarFok:  IExCor=  402 AccDes= 0.00D+00 IRadAn=         1 IDoV= 1 UseB2=F ITyADJ=14
 ICtDFT=  3500011 ScaDFX=  1.000000  1.000000  1.000000  1.000000
 FoFCou: FMM=F IPFlag=           0 FMFlag=      100000 FMFlg1=           0
         NFxFlg=           0 DoJE=T BraDBF=F KetDBF=T FulRan=T
         wScrn=  0.000000 ICntrl=     500 IOpCl=  0 I1Cent=   200000004 NGrid=           0
         NMat0=    1 NMatS0=      1 NMatT0=    0 NMatD0=    1 NMtDS0=    0 NMtDT0=    0
 Petite list used in FoFCou.
 Harris En= -155.028786733855    
 JPrj=0 DoOrth=F DoCkMO=F.
 Leave Link  401 at Tue Apr 11 13:48:49 2017, MaxMem=  2013265920 cpu:        26.6
 (Enter /public/apps/gaussian//g09/l502.exe)
 Closed shell SCF:
 Using DIIS extrapolation, IDIIS=  1040.
 Integral symmetry usage will be decided dynamically.
 Keep R1 ints in memory in canonical form, NReq=2009984.
 IVT=       29191 IEndB=       29191 NGot=  2013265920 MDV=  2012133375
 LenX=  2012133375 LenY=  2012129685
 Requested convergence on RMS density matrix=1.00D-08 within 128 cycles.
 Requested convergence on MAX density matrix=1.00D-06.
 Requested convergence on             energy=1.00D-06.
 No special actions if energy rises.
 FoFCou: FMM=F IPFlag=           0 FMFlag=           0 FMFlg1=           0
         NFxFlg=           0 DoJE=F BraDBF=F KetDBF=F FulRan=T
         wScrn=  0.000000 ICntrl=     600 IOpCl=  0 I1Cent=           0 NGrid=           0
         NMat0=    1 NMatS0=   1485 NMatT0=    0 NMatD0=    1 NMtDS0=    0 NMtDT0=    0
 Symmetry not used in FoFCou.
 Integral accuracy reduced to 1.0D-05 until final iterations.

 Cycle   1  Pass 0  IDiag  1:
 E= -154.686779860389    
 DIIS: error= 6.03D-02 at cycle   1 NSaved=   1.
 NSaved= 1 IEnMin= 1 EnMin= -154.686779860389     IErMin= 1 ErrMin= 6.03D-02
 ErrMax= 6.03D-02  0.00D+00 EMaxC= 1.00D-01 BMatC= 2.10D-01 BMatP= 2.10D-01
 IDIUse=3 WtCom= 3.97D-01 WtEn= 6.03D-01
 Coeff-Com:  0.100D+01
 Coeff-En:   0.100D+01
 Coeff:      0.100D+01
 Gap=     0.282 Goal=   None    Shift=    0.000
 GapD=    0.282 DampG=1.000 DampE=0.500 DampFc=0.5000 IDamp=-1.
 Damping current iteration by 5.00D-01
 RMSDP=1.79D-02 MaxDP=1.84D-01              OVMax= 2.06D-01

 Cycle   2  Pass 0  IDiag  1:
 E= -154.783314612509     Delta-E=       -0.096534752120 Rises=F Damp=T
 DIIS: error= 7.54D-03 at cycle   2 NSaved=   2.
 NSaved= 2 IEnMin= 2 EnMin= -154.783314612509     IErMin= 2 ErrMin= 7.54D-03
 ErrMax= 7.54D-03  0.00D+00 EMaxC= 1.00D-01 BMatC= 4.45D-03 BMatP= 2.10D-01
 IDIUse=3 WtCom= 9.25D-01 WtEn= 7.54D-02
 Coeff-Com:  0.473D-01 0.953D+00
 Coeff-En:   0.558D-01 0.944D+00
 Coeff:      0.479D-01 0.952D+00
 Gap=     0.368 Goal=   None    Shift=    0.000
 RMSDP=2.58D-03 MaxDP=3.00D-02 DE=-9.65D-02 OVMax= 1.08D-01

 Cycle   3  Pass 0  IDiag  1:
 E= -154.892116251478     Delta-E=       -0.108801638969 Rises=F Damp=F
 DIIS: error= 5.90D-03 at cycle   3 NSaved=   3.
 NSaved= 3 IEnMin= 3 EnMin= -154.892116251478     IErMin= 3 ErrMin= 5.90D-03
 ErrMax= 5.90D-03  0.00D+00 EMaxC= 1.00D-01 BMatC= 1.65D-03 BMatP= 4.45D-03
 IDIUse=3 WtCom= 9.41D-01 WtEn= 5.90D-02
 Coeff-Com:  0.931D-03 0.357D+00 0.642D+00
 Coeff-En:   0.000D+00 0.000D+00 0.100D+01
 Coeff:      0.876D-03 0.336D+00 0.663D+00
 Gap=     0.361 Goal=   None    Shift=    0.000
 RMSDP=8.40D-04 MaxDP=1.01D-02 DE=-1.09D-01 OVMax= 9.57D-03

 Cycle   4  Pass 0  IDiag  1:
 E= -154.893116699250     Delta-E=       -0.001000447772 Rises=F Damp=F
 DIIS: error= 2.08D-03 at cycle   4 NSaved=   4.
 NSaved= 4 IEnMin= 4 EnMin= -154.893116699250     IErMin= 4 ErrMin= 2.08D-03
 ErrMax= 2.08D-03  0.00D+00 EMaxC= 1.00D-01 BMatC= 3.11D-04 BMatP= 1.65D-03
 IDIUse=3 WtCom= 9.79D-01 WtEn= 2.08D-02
 Coeff-Com: -0.328D-02 0.799D-01 0.325D+00 0.598D+00
 Coeff-En:   0.000D+00 0.000D+00 0.107D+00 0.893D+00
 Coeff:     -0.321D-02 0.782D-01 0.321D+00 0.604D+00
 Gap=     0.363 Goal=   None    Shift=    0.000
 RMSDP=2.87D-04 MaxDP=3.53D-03 DE=-1.00D-03 OVMax= 3.57D-03

 Cycle   5  Pass 0  IDiag  1:
 E= -154.893350146773     Delta-E=       -0.000233447523 Rises=F Damp=F
 DIIS: error= 2.85D-04 at cycle   5 NSaved=   5.
 NSaved= 5 IEnMin= 5 EnMin= -154.893350146773     IErMin= 5 ErrMin= 2.85D-04
 ErrMax= 2.85D-04  0.00D+00 EMaxC= 1.00D-01 BMatC= 6.75D-06 BMatP= 3.11D-04
 IDIUse=3 WtCom= 9.97D-01 WtEn= 2.85D-03
 Coeff-Com: -0.121D-02 0.649D-04 0.483D-01 0.183D+00 0.770D+00
 Coeff-En:   0.000D+00 0.000D+00 0.000D+00 0.000D+00 0.100D+01
 Coeff:     -0.120D-02 0.647D-04 0.481D-01 0.182D+00 0.771D+00
 Gap=     0.363 Goal=   None    Shift=    0.000
 RMSDP=4.04D-05 MaxDP=4.35D-04 DE=-2.33D-04 OVMax= 5.86D-04

 Cycle   6  Pass 0  IDiag  1:
 E= -154.893354978541     Delta-E=       -0.000004831768 Rises=F Damp=F
 DIIS: error= 5.61D-05 at cycle   6 NSaved=   6.
 NSaved= 6 IEnMin= 6 EnMin= -154.893354978541     IErMin= 6 ErrMin= 5.61D-05
 ErrMax= 5.61D-05  0.00D+00 EMaxC= 1.00D-01 BMatC= 2.08D-07 BMatP= 6.75D-06
 IDIUse=1 WtCom= 1.00D+00 WtEn= 0.00D+00
 Coeff-Com: -0.349D-03-0.130D-02 0.126D-01 0.598D-01 0.302D+00 0.628D+00
 Coeff:     -0.349D-03-0.130D-02 0.126D-01 0.598D-01 0.302D+00 0.628D+00
 Gap=     0.363 Goal=   None    Shift=    0.000
 RMSDP=7.78D-06 MaxDP=1.10D-04 DE=-4.83D-06 OVMax= 1.15D-04

 Initial convergence to 1.0D-05 achieved.  Increase integral accuracy.
 Cycle   7  Pass 1  IDiag  1:
 E= -154.893377185010     Delta-E=       -0.000022206468 Rises=F Damp=F
 DIIS: error= 1.29D-05 at cycle   1 NSaved=   1.
 NSaved= 1 IEnMin= 1 EnMin= -154.893377185010     IErMin= 1 ErrMin= 1.29D-05
 ErrMax= 1.29D-05  0.00D+00 EMaxC= 1.00D-01 BMatC= 1.66D-08 BMatP= 1.66D-08
 IDIUse=1 WtCom= 1.00D+00 WtEn= 0.00D+00
 Coeff-Com:  0.100D+01
 Coeff:      0.100D+01
 Gap=     0.363 Goal=   None    Shift=    0.000
 RMSDP=7.78D-06 MaxDP=1.10D-04 DE=-2.22D-05 OVMax= 4.74D-05

 Cycle   8  Pass 1  IDiag  1:
 E= -154.893377193102     Delta-E=       -0.000000008092 Rises=F Damp=F
 DIIS: error= 1.04D-05 at cycle   2 NSaved=   2.
 NSaved= 2 IEnMin= 2 EnMin= -154.893377193102     IErMin= 2 ErrMin= 1.04D-05
 ErrMax= 1.04D-05  0.00D+00 EMaxC= 1.00D-01 BMatC= 9.86D-09 BMatP= 1.66D-08
 IDIUse=1 WtCom= 1.00D+00 WtEn= 0.00D+00
 Coeff-Com:  0.426D+00 0.574D+00
 Coeff:      0.426D+00 0.574D+00
 Gap=     0.363 Goal=   None    Shift=    0.000
 RMSDP=1.66D-06 MaxDP=2.64D-05 DE=-8.09D-09 OVMax= 2.63D-05

 Cycle   9  Pass 1  IDiag  1:
 E= -154.893377201517     Delta-E=       -0.000000008416 Rises=F Damp=F
 DIIS: error= 1.67D-06 at cycle   3 NSaved=   3.
 NSaved= 3 IEnMin= 3 EnMin= -154.893377201517     IErMin= 3 ErrMin= 1.67D-06
 ErrMax= 1.67D-06  0.00D+00 EMaxC= 1.00D-01 BMatC= 2.93D-10 BMatP= 9.86D-09
 IDIUse=1 WtCom= 1.00D+00 WtEn= 0.00D+00
 Coeff-Com:  0.166D-01 0.147D+00 0.836D+00
 Coeff:      0.166D-01 0.147D+00 0.836D+00
 Gap=     0.363 Goal=   None    Shift=    0.000
 RMSDP=3.24D-07 MaxDP=3.83D-06 DE=-8.42D-09 OVMax= 4.42D-06

 Cycle  10  Pass 1  IDiag  1:
 E= -154.893377201753     Delta-E=       -0.000000000236 Rises=F Damp=F
 DIIS: error= 5.99D-07 at cycle   4 NSaved=   4.
 NSaved= 4 IEnMin= 4 EnMin= -154.893377201753     IErMin= 4 ErrMin= 5.99D-07
 ErrMax= 5.99D-07  0.00D+00 EMaxC= 1.00D-01 BMatC= 2.61D-11 BMatP= 2.93D-10
 IDIUse=1 WtCom= 1.00D+00 WtEn= 0.00D+00
 Coeff-Com: -0.742D-02 0.420D-01 0.350D+00 0.615D+00
 Coeff:     -0.742D-02 0.420D-01 0.350D+00 0.615D+00
 Gap=     0.363 Goal=   None    Shift=    0.000
 RMSDP=9.17D-08 MaxDP=1.32D-06 DE=-2.36D-10 OVMax= 1.12D-06

 Cycle  11  Pass 1  IDiag  1:
 E= -154.893377201769     Delta-E=       -0.000000000015 Rises=F Damp=F
 DIIS: error= 2.27D-07 at cycle   5 NSaved=   5.
 NSaved= 5 IEnMin= 5 EnMin= -154.893377201769     IErMin= 5 ErrMin= 2.27D-07
 ErrMax= 2.27D-07  0.00D+00 EMaxC= 1.00D-01 BMatC= 2.77D-12 BMatP= 2.61D-11
 IDIUse=1 WtCom= 1.00D+00 WtEn= 0.00D+00
 Coeff-Com: -0.443D-02 0.120D-01 0.123D+00 0.309D+00 0.560D+00
 Coeff:     -0.443D-02 0.120D-01 0.123D+00 0.309D+00 0.560D+00
 Gap=     0.363 Goal=   None    Shift=    0.000
 RMSDP=2.83D-08 MaxDP=3.70D-07 DE=-1.54D-11 OVMax= 3.22D-07

 Cycle  12  Pass 1  IDiag  1:
 E= -154.893377201771     Delta-E=       -0.000000000002 Rises=F Damp=F
 DIIS: error= 2.26D-08 at cycle   6 NSaved=   6.
 NSaved= 6 IEnMin= 6 EnMin= -154.893377201771     IErMin= 6 ErrMin= 2.26D-08
 ErrMax= 2.26D-08  0.00D+00 EMaxC= 1.00D-01 BMatC= 2.28D-14 BMatP= 2.77D-12
 IDIUse=1 WtCom= 1.00D+00 WtEn= 0.00D+00
 Coeff-Com: -0.806D-03 0.113D-02 0.160D-01 0.461D-01 0.133D+00 0.805D+00
 Coeff:     -0.806D-03 0.113D-02 0.160D-01 0.461D-01 0.133D+00 0.805D+00
 Gap=     0.363 Goal=   None    Shift=    0.000
 RMSDP=3.54D-09 MaxDP=2.57D-08 DE=-2.44D-12 OVMax= 4.13D-08

 SCF Done:  E(RB3LYP) =  -154.893377202     A.U. after   12 cycles
            NFock= 12  Conv=0.35D-08     -V/T= 1.9923
 KE= 1.560991174375D+02 PE=-5.447440972174D+02 EE= 1.431506708813D+02
 Leave Link  502 at Tue Apr 11 13:49:49 2017, MaxMem=  2013265920 cpu:       162.4
 (Enter /public/apps/gaussian//g09/l508.exe)
 QCSCF skips out because SCF is already converged.
 Leave Link  508 at Tue Apr 11 13:50:21 2017, MaxMem=  2013265920 cpu:         0.0
 (Enter /public/apps/gaussian//g09/l601.exe)
 Copying SCF densities to generalized density rwf, IOpCl= 0 IROHF=0.

 **********************************************************************

            Population analysis using the SCF density.

 **********************************************************************

 Orbital symmetries:
       Occupied  (A) (A) (A) (A) (A) (A) (A) (A) (A) (A) (A) (A)
                 (A)
       Virtual   (A) (A) (A) (A) (A) (A) (A) (A) (A) (A) (A) (A)
                 (A) (A) (A) (A) (A) (A) (A) (A) (A) (A) (A) (A)
                 (A) (A) (A) (A) (A) (A) (A) (A) (A) (A) (A) (A)
                 (A) (A) (A) (A) (A)
 The electronic state is 1-A.
 Alpha  occ. eigenvalues --  -19.10738 -10.16503 -10.10089  -1.07345  -0.79300
 Alpha  occ. eigenvalues --   -0.64069  -0.56037  -0.51025  -0.41661  -0.39985
 Alpha  occ. eigenvalues --   -0.38230  -0.31829  -0.25734
 Alpha virt. eigenvalues --    0.10535   0.15125   0.20198   0.20949   0.21270
 Alpha virt. eigenvalues --    0.23731   0.27868   0.28848   0.48909   0.54824
 Alpha virt. eigenvalues --    0.58214   0.63105   0.65084   0.73233   0.86480
 Alpha virt. eigenvalues --    0.92265   0.96825   1.00131   1.00821   1.03817
 Alpha virt. eigenvalues --    1.06742   1.10168   1.16143   1.17109   1.25637
 Alpha virt. eigenvalues --    1.36009   1.52069   1.66205   1.74997   1.82166
 Alpha virt. eigenvalues --    1.98331   2.10457   2.12827   2.21939   2.36549
 Alpha virt. eigenvalues --    2.38270   2.85052   3.13804   3.16693   3.40870
 Alpha virt. eigenvalues --    3.59184
          Condensed to atoms (all electrons):
               1          2          3          4          5          6
     1  C    5.029115   0.453166   0.388868   0.388868   0.363167  -0.047749
     2  C    0.453166   4.653228  -0.030456  -0.030456  -0.022394   0.396964
     3  H    0.388868  -0.030456   0.540069  -0.038821  -0.028841   0.013598
     4  H    0.388868  -0.030456  -0.038821   0.540069  -0.028841  -0.016491
     5  H    0.363167  -0.022394  -0.028841  -0.028841   0.562981  -0.000708
     6  H   -0.047749   0.396964   0.013598  -0.016491  -0.000708   0.672508
     7  O   -0.074709   0.360677   0.005236   0.005236   0.005175  -0.057040
     8  H   -0.047749   0.396964  -0.016491   0.013598  -0.000708  -0.077594
     9  H    0.012363  -0.054155  -0.000089  -0.000089  -0.000790  -0.005138
               7          8          9
     1  C   -0.074709  -0.047749   0.012363
     2  C    0.360677   0.396964  -0.054155
     3  H    0.005236  -0.016491  -0.000089
     4  H    0.005236   0.013598  -0.000089
     5  H    0.005175  -0.000708  -0.000790
     6  H   -0.057040  -0.077594  -0.005138
     7  O    8.030627  -0.057040   0.281810
     8  H   -0.057040   0.672508  -0.005138
     9  H    0.281810  -0.005138   0.410488
 Mulliken charges:
               1
     1  C   -0.465340
     2  C   -0.123539
     3  H    0.166927
     4  H    0.166927
     5  H    0.150959
     6  H    0.121649
     7  O   -0.499971
     8  H    0.121649
     9  H    0.360739
 Sum of Mulliken charges =   0.00000
 Mulliken charges with hydrogens summed into heavy atoms:
               1
     1  C    0.019473
     2  C    0.119759
     7  O   -0.139232
 Electronic spatial extent (au):  <R**2>=            165.9178
 Charge=              0.0000 electrons
 Dipole moment (field-independent basis, Debye):
    X=              0.4327    Y=              1.5108    Z=              0.0000  Tot=              1.5716
 Quadrupole moment (field-independent basis, Debye-Ang):
   XX=            -16.3890   YY=            -19.8470   ZZ=            -18.9830
   XY=              1.6759   XZ=              0.0000   YZ=              0.0000
 Traceless Quadrupole moment (field-independent basis, Debye-Ang):
   XX=              2.0173   YY=             -1.4406   ZZ=             -0.5767
   XY=              1.6759   XZ=              0.0000   YZ=              0.0000
 Octapole moment (field-independent basis, Debye-Ang**2):
  XXX=             13.4124  YYY=             -0.5329  ZZZ=              0.0000  XYY=              0.5946
  XXY=              2.3748  XXZ=              0.0000  XZZ=              1.2265  YZZ=             -0.2838
  YYZ=              0.0000  XYZ=              0.0000
 Hexadecapole moment (field-independent basis, Debye-Ang**3):
 XXXX=           -110.4552 YYYY=            -45.6589 ZZZZ=            -26.3084 XXXY=              0.4192
 XXXZ=              0.0000 YYYX=             -0.5174 YYYZ=              0.0000 ZZZX=              0.0000
 ZZZY=              0.0000 XXYY=            -28.9485 XXZZ=            -26.0050 YYZZ=            -11.7491
 XXYZ=              0.0000 YYXZ=              0.0000 ZZXY=              0.3765
 N-N= 9.060093169689D+01 E-N=-5.447440984901D+02  KE= 1.560991174375D+02
 No NMR shielding tensors so no spin-rotation constants.
 Leave Link  601 at Tue Apr 11 13:51:15 2017, MaxMem=  2013265920 cpu:        59.6
 (Enter /public/apps/gaussian//g09/l701.exe)
 Compute integral first derivatives.
 ... and contract with generalized density number  0.
 Leave Link  701 at Tue Apr 11 13:52:05 2017, MaxMem=  2013265920 cpu:        28.3
 (Enter /public/apps/gaussian//g09/l702.exe)
 L702 exits ... SP integral derivatives will be done elsewhere.
 Leave Link  702 at Tue Apr 11 13:52:10 2017, MaxMem=  2013265920 cpu:         0.1
 (Enter /public/apps/gaussian//g09/l703.exe)
 Compute integral first derivatives, UseDBF=F ICtDFT=           0.
 Integral derivatives from FoFJK, PRISM(SPDF).
 Calling FoFJK, ICntrl=      2127 FMM=F ISym2X=0 I1Cent= 0 IOpClX= 0 NMat=1 NMatS=1 NMatT=0.
 FoFJK:  IHMeth= 1 ICntrl=    2127 DoSepK=F KAlg= 0 I1Cent=   0 FoldK=F
 IRaf=         0 NMat=   1 IRICut=       1 DoRegI=T DoRafI=F ISym2E= 0.
 FoFCou: FMM=F IPFlag=           0 FMFlag=      100000 FMFlg1=         800
         NFxFlg=           0 DoJE=F BraDBF=F KetDBF=F FulRan=T
         wScrn=  0.000000 ICntrl=    2127 IOpCl=  0 I1Cent=           0 NGrid=           0
         NMat0=    1 NMatS0=      1 NMatT0=    0 NMatD0=    1 NMtDS0=    0 NMtDT0=    0
 Symmetry not used in FoFCou.
 Leave Link  703 at Tue Apr 11 13:52:20 2017, MaxMem=  2013265920 cpu:        14.5
 (Enter /public/apps/gaussian//g09/l716.exe)
 Dipole        = 1.70223026D-01 5.94410087D-01-1.57043028D-06
 ***** Axes restored to original set *****
 -------------------------------------------------------------------
 Center     Atomic                   Forces (Hartrees/Bohr)
 Number     Number              X              Y              Z
 -------------------------------------------------------------------
      1        6           0.050166819    0.006970430    0.011675575
      2        6          -0.041502754    0.011051383   -0.036969520
      3        1          -0.077402146    0.125499703   -0.006021972
      4        1          -0.021819098   -0.071384475   -0.127301387
      5        1          -0.057091336   -0.082892513    0.108401805
      6        1           0.076184481   -0.135213526    0.013846852
      7        8          -0.111323718    0.043171263   -0.121103998
      8        1           0.018841479    0.067909619    0.138972372
      9        1           0.163946272    0.034888117    0.018500272
 -------------------------------------------------------------------
 Cartesian Forces:  Max     0.163946272 RMS     0.081027837
 Leave Link  716 at Tue Apr 11 13:52:33 2017, MaxMem=  2013265920 cpu:         0.2
 (Enter /public/apps/gaussian//g09/l103.exe)

 GradGradGradGradGradGradGradGradGradGradGradGradGradGradGradGradGradGrad
 Berny optimization.
 FormGI is forming the generalized inverse of G from B-inverse, IUseBI=4.
 Internal  Forces:  Max     0.168449498 RMS     0.072569331
 Search for a local minimum.
 Step number   1 out of a maximum of   43
 All quantities printed in internal units (Hartrees-Bohrs-Radians)
 RMS Force = .72569D-01 SwitMx=.10000D-02 MixMth= 1
 Mixed Optimization -- RFO/linear search
 Second derivative matrix not updated -- first step.
 ITU=  0
     Eigenvalues ---    0.02089   0.03015   0.06414   0.06927   0.06928
     Eigenvalues ---    0.07032   0.11801   0.13973   0.16000   0.16000
     Eigenvalues ---    0.16000   0.16000   0.22092   0.45621   0.57681
     Eigenvalues ---    0.57681   0.57681   0.57681   0.57682   0.67194
     Eigenvalues ---    0.87879
 RFO step:  Lambda=-2.11233218D-01 EMin= 2.08879877D-02
 Linear search not attempted -- first point.
 Maximum step size (   0.300) exceeded in Quadratic search.
    -- Step size scaled by   0.587
 Iteration  1 RMS(Cart)=  0.06851279 RMS(Int)=  0.00032619
 Iteration  2 RMS(Cart)=  0.00038179 RMS(Int)=  0.00001267
 Iteration  3 RMS(Cart)=  0.00000017 RMS(Int)=  0.00001267
 ITry= 1 IFail=0 DXMaxC= 1.53D-01 DCOld= 1.00D+10 DXMaxT= 3.00D-01 DXLimC= 3.00D+00 Rises=F
 Variable       Old X    -DE/DX   Delta X   Delta X   Delta X     New X
                                 (Linear)    (Quad)   (Total)
    R1        2.64561   0.10911   0.00000   0.09599   0.09599   2.74160
    R2        1.79524   0.14751   0.00000   0.10991   0.10991   1.90515
    R3        1.79524   0.14751   0.00000   0.10991   0.10991   1.90515
    R4        1.79524   0.14783   0.00000   0.11014   0.11014   1.90538
    R5        1.79524   0.15556   0.00000   0.11591   0.11591   1.91115
    R6        2.45664   0.13920   0.00000   0.09255   0.09255   2.54919
    R7        1.79524   0.15556   0.00000   0.11591   0.11591   1.91115
    R8        1.60626   0.16845   0.00000   0.09074   0.09074   1.69700
    A1        1.91063   0.00355   0.00000   0.00555   0.00553   1.91616
    A2        1.91063   0.00355   0.00000   0.00555   0.00553   1.91616
    A3        1.91063   0.00553   0.00000   0.00886   0.00884   1.91947
    A4        1.91063  -0.00412   0.00000  -0.00676  -0.00677   1.90386
    A5        1.91064  -0.00425   0.00000  -0.00661  -0.00664   1.90400
    A6        1.91064  -0.00425   0.00000  -0.00661  -0.00664   1.90400
    A7        1.91063  -0.00132   0.00000  -0.00265  -0.00266   1.90797
    A8        1.91063  -0.00007   0.00000   0.00073   0.00073   1.91136
    A9        1.91063  -0.00132   0.00000  -0.00265  -0.00266   1.90797
   A10        1.91063   0.00322   0.00000   0.00621   0.00621   1.91684
   A11        1.91063  -0.00373   0.00000  -0.00785  -0.00788   1.90275
   A12        1.91063   0.00322   0.00000   0.00621   0.00621   1.91684
   A13        1.91063   0.01262   0.00000   0.01996   0.01996   1.93059
    D1       -3.14159  -0.00274   0.00000  -0.00569  -0.00568   3.13592
    D2       -1.04720   0.00035   0.00000   0.00074   0.00074  -1.04645
    D3        1.04720   0.00344   0.00000   0.00717   0.00716   1.05436
    D4       -1.04720  -0.00344   0.00000  -0.00717  -0.00716  -1.05436
    D5        1.04720  -0.00035   0.00000  -0.00074  -0.00074   1.04645
    D6        3.14159   0.00274   0.00000   0.00569   0.00568  -3.13592
    D7        1.04720  -0.00309   0.00000  -0.00643  -0.00642   1.04078
    D8        3.14159   0.00000   0.00000   0.00000   0.00000   3.14159
    D9       -1.04720   0.00309   0.00000   0.00643   0.00642  -1.04078
   D10       -3.14159   0.00000   0.00000   0.00000   0.00000  -3.14159
   D11       -1.04720   0.00031   0.00000   0.00101   0.00100  -1.04619
   D12        1.04720  -0.00031   0.00000  -0.00101  -0.00100   1.04619
         Item               Value     Threshold  Converged?
 Maximum Force            0.168449     0.000450     NO 
 RMS     Force            0.072569     0.000300     NO 
 Maximum Displacement     0.153448     0.001800     NO 
 RMS     Displacement     0.068638     0.001200     NO 
 Predicted change in Energy=-9.714863D-02
 Lowest energy point so far.  Saving SCF results.
 GradGradGradGradGradGradGradGradGradGradGradGradGradGradGradGradGradGrad

 Leave Link  103 at Tue Apr 11 13:52:43 2017, MaxMem=  2013265920 cpu:        70.6
 (Enter /public/apps/gaussian//g09/l202.exe)
                          Input orientation:                          
 ---------------------------------------------------------------------
 Center     Atomic      Atomic             Coordinates (Angstroms)
 Number     Number       Type             X           Y           Z
 ---------------------------------------------------------------------
      1          6           0       -0.763799    0.016297   -0.070311
      2          6           0        0.646172    0.281920    0.144675
      3          1           0       -1.273502    0.885444   -0.104551
      4          1           0       -0.889661   -0.474186   -0.942075
      5          1           0       -1.126362   -0.549231    0.681597
      6          1           0        1.149641   -0.594345    0.183176
      7          8           0        1.121339    1.038605   -0.865952
      8          1           0        0.764743    0.769029    1.023006
      9          1           0        1.994431    1.212147   -0.747536
 ---------------------------------------------------------------------
                    Distance matrix (angstroms):
                    1          2          3          4          5
     1  C    0.000000
     2  C    1.450790   0.000000
     3  H    1.008160   2.027684   0.000000
     4  H    1.008160   2.027684   1.642368   0.000000
     5  H    1.008286   2.030018   1.642550   1.642550   0.000000
     6  H    2.024448   1.011337   2.853801   2.332248   2.330376
     7  O    2.287335   1.348971   2.517628   2.517628   3.157260
     8  H    2.024447   1.011335   2.332247   2.853800   2.330375
     9  H    3.081642   1.865252   3.346572   3.346572   3.858007
                    6          7          8          9
     6  H    0.000000
     7  O    1.941133   0.000000
     8  H    1.646891   1.941132   0.000000
     9  H    2.200752   0.898014   2.200751   0.000000
 Stoichiometry    C2H6O
 Framework group  C1[X(C2H6O)]
 Deg. of freedom    21
 Full point group                 C1      NOp   1
 RotChk:  IX=0 Diff= 2.03D-03
 Largest Abelian subgroup         C1      NOp   1
 Largest concise Abelian subgroup C1      NOp   1
                         Standard orientation:                         
 ---------------------------------------------------------------------
 Center     Atomic      Atomic             Coordinates (Angstroms)
 Number     Number       Type             X           Y           Z
 ---------------------------------------------------------------------
      1          6           0       -1.177062   -0.209568    0.000000
      2          6           0        0.081464    0.512170    0.000000
      3          1           0       -1.236870   -0.791347   -0.821184
      4          1           0       -1.236870   -0.791346    0.821184
      5          1           0       -1.947310    0.441091    0.000000
      6          1           0        0.131669    1.097165    0.823446
      7          8           0        1.104872   -0.366669    0.000000
      8          1           0        0.131669    1.097164   -0.823445
      9          1           0        1.892324    0.065011    0.000000
 ---------------------------------------------------------------------
 Rotational constants (GHZ):     40.8967452     10.2193461      8.9671950
 Leave Link  202 at Tue Apr 11 13:52:44 2017, MaxMem=  2013265920 cpu:         0.0
 (Enter /public/apps/gaussian//g09/l301.exe)
 Basis read from rwf:  (5D, 7F)
 No pseudopotential information found on rwf file.
 There are    57 symmetry adapted cartesian basis functions of A   symmetry.
 There are    54 symmetry adapted basis functions of A   symmetry.
    54 basis functions,   108 primitive gaussians,    57 cartesian basis functions
    13 alpha electrons       13 beta electrons
       nuclear repulsion energy        86.6379578165 Hartrees.
 IExCor=  402 DFT=T Ex+Corr=B3LYP ExCW=0 ScaHFX=  0.200000
 ScaDFX=  0.800000  0.720000  1.000000  0.810000 ScalE2=  1.000000  1.000000
 IRadAn=      0 IRanWt=     -1 IRanGd=            0 ICorTp=0 IEmpDi=  4
 NAtoms=    9 NActive=    9 NUniq=    9 SFac= 1.00D+00 NAtFMM=   60 NAOKFM=F Big=F
 Integral buffers will be    131072 words long.
 Raffenetti 2 integral format.
 Two-electron integral symmetry is turned on.
 No density basis found on file   724.
 Leave Link  301 at Tue Apr 11 13:52:44 2017, MaxMem=  2013265920 cpu:         0.4
 (Enter /public/apps/gaussian//g09/l302.exe)
 NPDir=0 NMtPBC=     1 NCelOv=     1 NCel=       1 NClECP=     1 NCelD=      1
         NCelK=      1 NCelE2=     1 NClLst=     1 CellRange=     0.0.
 One-electron integrals computed using PRISM.
 NBasis=    54 RedAO= T EigKep=  5.17D-03  NBF=    54
 NBsUse=    54 1.00D-06 EigRej= -1.00D+00 NBFU=    54
 Precomputing XC quadrature grid using
 IXCGrd= 4 IRadAn=           0 IRanWt=          -1 IRanGd=           0 AccXCQ= 0.00D+00.
 Generated NRdTot=       0 NPtTot=           0 NUsed=           0 NTot=          32
 NSgBfM=    57    57    57    57    57 MxSgAt=     9 MxSgA2=     9.
 Leave Link  302 at Tue Apr 11 13:52:44 2017, MaxMem=  2013265920 cpu:         1.0
 (Enter /public/apps/gaussian//g09/l303.exe)
 DipDrv:  MaxL=1.
 Leave Link  303 at Tue Apr 11 13:52:44 2017, MaxMem=  2013265920 cpu:         0.1
 (Enter /public/apps/gaussian//g09/l401.exe)
 Initial guess from the checkpoint file:  "1.chk"
 B after Tr=     0.000000    0.000000    0.000000
         Rot=    1.000000    0.000000    0.000000   -0.000389 Ang=  -0.04 deg.
 Guess basis will be translated and rotated to current coordinates.
 JPrj=2 DoOrth=T DoCkMO=T.
 Generating alternative initial guess.
 ExpMin= 1.61D-01 ExpMax= 5.48D+03 ExpMxC= 8.25D+02 IAcc=1 IRadAn=         1 AccDes= 0.00D+00
 Harris functional with IExCor=  402 and IRadAn=       1 diagonalized for initial guess.
 HarFok:  IExCor=  402 AccDes= 0.00D+00 IRadAn=         1 IDoV= 1 UseB2=F ITyADJ=14
 ICtDFT=  3500011 ScaDFX=  1.000000  1.000000  1.000000  1.000000
 FoFCou: FMM=F IPFlag=           0 FMFlag=      100000 FMFlg1=           0
         NFxFlg=           0 DoJE=T BraDBF=F KetDBF=T FulRan=T
         wScrn=  0.000000 ICntrl=     500 IOpCl=  0 I1Cent=   200000004 NGrid=           0
         NMat0=    1 NMatS0=      1 NMatT0=    0 NMatD0=    1 NMtDS0=    0 NMtDT0=    0
 Petite list used in FoFCou.
 Harris En= -155.074390976768    
 Leave Link  401 at Tue Apr 11 13:52:45 2017, MaxMem=  2013265920 cpu:         1.2
 (Enter /public/apps/gaussian//g09/l502.exe)
 Closed shell SCF:
 Using DIIS extrapolation, IDIIS=  1040.
 Integral symmetry usage will be decided dynamically.
 Keep R1 ints in memory in canonical form, NReq=2009984.
 IVT=       29191 IEndB=       29191 NGot=  2013265920 MDV=  2012133375
 LenX=  2012133375 LenY=  2012129685
 Requested convergence on RMS density matrix=1.00D-08 within 128 cycles.
 Requested convergence on MAX density matrix=1.00D-06.
 Requested convergence on             energy=1.00D-06.
 No special actions if energy rises.
 FoFCou: FMM=F IPFlag=           0 FMFlag=           0 FMFlg1=           0
         NFxFlg=           0 DoJE=F BraDBF=F KetDBF=F FulRan=T
         wScrn=  0.000000 ICntrl=     600 IOpCl=  0 I1Cent=           0 NGrid=           0
         NMat0=    1 NMatS0=   1485 NMatT0=    0 NMatD0=    1 NMtDS0=    0 NMtDT0=    0
 Symmetry not used in FoFCou.
 Integral accuracy reduced to 1.0D-05 until final iterations.

 Cycle   1  Pass 0  IDiag  1:
 E= -154.979737418767    
 DIIS: error= 1.10D-02 at cycle   1 NSaved=   1.
 NSaved= 1 IEnMin= 1 EnMin= -154.979737418767     IErMin= 1 ErrMin= 1.10D-02
 ErrMax= 1.10D-02  0.00D+00 EMaxC= 1.00D-01 BMatC= 4.64D-03 BMatP= 4.64D-03
 IDIUse=3 WtCom= 8.90D-01 WtEn= 1.10D-01
 Coeff-Com:  0.100D+01
 Coeff-En:   0.100D+01
 Coeff:      0.100D+01
 Recover alternate guess density for next cycle.
 RMSDP=7.43D-03 MaxDP=7.62D-02              OVMax= 0.00D+00

 Cycle   2  Pass 0  IDiag  1:
 E= -154.814846498417     Delta-E=        0.164890920350 Rises=F Damp=F
 Switch densities from cycles 1 and 2 for lowest energy.
 DIIS: error= 5.72D-02 at cycle   2 NSaved=   2.
 NSaved= 2 IEnMin= 1 EnMin= -154.979737418767     IErMin= 1 ErrMin= 1.10D-02
 ErrMax= 5.72D-02  0.00D+00 EMaxC= 1.00D+00 BMatC= 1.72D-01 BMatP= 4.64D-03
 IDIUse=1 WtCom= 1.00D+00 WtEn= 0.00D+00
 Coeff-Com:  0.109D+01-0.892D-01
 Coeff:      0.109D+01-0.892D-01
 Gap=     0.371 Goal=   None    Shift=    0.000
 RMSDP=1.89D-03 MaxDP=1.85D-02 DE= 1.65D-01 OVMax= 1.00D-01

 Cycle   3  Pass 0  IDiag  1:
 E= -154.984366299217     Delta-E=       -0.169519800800 Rises=F Damp=F
 DIIS: error= 2.96D-03 at cycle   3 NSaved=   3.
 NSaved= 3 IEnMin= 3 EnMin= -154.984366299217     IErMin= 3 ErrMin= 2.96D-03
 ErrMax= 2.96D-03  0.00D+00 EMaxC= 1.00D+00 BMatC= 6.83D-04 BMatP= 4.64D-03
 IDIUse=1 WtCom= 1.00D+00 WtEn= 0.00D+00
 Coeff-Com:  0.258D+00-0.200D-01 0.762D+00
 Coeff:      0.258D+00-0.200D-01 0.762D+00
 Gap=     0.352 Goal=   None    Shift=    0.000
 RMSDP=6.45D-04 MaxDP=7.44D-03 DE=-1.70D-01 OVMax= 8.02D-03

 Cycle   4  Pass 0  IDiag  1:
 E= -154.984671787992     Delta-E=       -0.000305488775 Rises=F Damp=F
 DIIS: error= 2.01D-03 at cycle   4 NSaved=   4.
 NSaved= 4 IEnMin= 4 EnMin= -154.984671787992     IErMin= 4 ErrMin= 2.01D-03
 ErrMax= 2.01D-03  0.00D+00 EMaxC= 1.00D+00 BMatC= 3.60D-04 BMatP= 6.83D-04
 IDIUse=1 WtCom= 1.00D+00 WtEn= 0.00D+00
 Coeff-Com:  0.161D-01 0.310D-02 0.416D+00 0.565D+00
 Coeff:      0.161D-01 0.310D-02 0.416D+00 0.565D+00
 Gap=     0.354 Goal=   None    Shift=    0.000
 RMSDP=2.66D-04 MaxDP=3.51D-03 DE=-3.05D-04 OVMax= 3.42D-03

 Cycle   5  Pass 0  IDiag  1:
 E= -154.984945158054     Delta-E=       -0.000273370062 Rises=F Damp=F
 DIIS: error= 2.43D-04 at cycle   5 NSaved=   5.
 NSaved= 5 IEnMin= 5 EnMin= -154.984945158054     IErMin= 5 ErrMin= 2.43D-04
 ErrMax= 2.43D-04  0.00D+00 EMaxC= 1.00D+00 BMatC= 3.74D-06 BMatP= 3.60D-04
 IDIUse=1 WtCom= 1.00D+00 WtEn= 0.00D+00
 Coeff-Com: -0.614D-02 0.166D-02 0.100D+00 0.175D+00 0.730D+00
 Coeff:     -0.614D-02 0.166D-02 0.100D+00 0.175D+00 0.730D+00
 Gap=     0.354 Goal=   None    Shift=    0.000
 RMSDP=3.25D-05 MaxDP=3.26D-04 DE=-2.73D-04 OVMax= 5.18D-04

 Cycle   6  Pass 0  IDiag  1:
 E= -154.984947842856     Delta-E=       -0.000002684802 Rises=F Damp=F
 DIIS: error= 5.24D-05 at cycle   6 NSaved=   6.
 NSaved= 6 IEnMin= 6 EnMin= -154.984947842856     IErMin= 6 ErrMin= 5.24D-05
 ErrMax= 5.24D-05  0.00D+00 EMaxC= 1.00D+00 BMatC= 1.79D-07 BMatP= 3.74D-06
 IDIUse=1 WtCom= 1.00D+00 WtEn= 0.00D+00
 Coeff-Com: -0.252D-02 0.563D-03 0.301D-01 0.543D-01 0.289D+00 0.628D+00
 Coeff:     -0.252D-02 0.563D-03 0.301D-01 0.543D-01 0.289D+00 0.628D+00
 Gap=     0.354 Goal=   None    Shift=    0.000
 RMSDP=8.30D-06 MaxDP=1.02D-04 DE=-2.68D-06 OVMax= 1.15D-04

 Initial convergence to 1.0D-05 achieved.  Increase integral accuracy.
 Cycle   7  Pass 1  IDiag  1:
 E= -154.984953151567     Delta-E=       -0.000005308711 Rises=F Damp=F
 DIIS: error= 1.40D-05 at cycle   1 NSaved=   1.
 NSaved= 1 IEnMin= 1 EnMin= -154.984953151567     IErMin= 1 ErrMin= 1.40D-05
 ErrMax= 1.40D-05  0.00D+00 EMaxC= 1.00D+00 BMatC= 1.77D-08 BMatP= 1.77D-08
 IDIUse=1 WtCom= 1.00D+00 WtEn= 0.00D+00
 Coeff-Com:  0.100D+01
 Coeff:      0.100D+01
 Gap=     0.354 Goal=   None    Shift=    0.000
 RMSDP=8.30D-06 MaxDP=1.02D-04 DE=-5.31D-06 OVMax= 5.11D-05

 Cycle   8  Pass 1  IDiag  1:
 E= -154.984953158178     Delta-E=       -0.000000006611 Rises=F Damp=F
 DIIS: error= 1.45D-05 at cycle   2 NSaved=   2.
 NSaved= 2 IEnMin= 2 EnMin= -154.984953158178     IErMin= 1 ErrMin= 1.40D-05
 ErrMax= 1.45D-05  0.00D+00 EMaxC= 1.00D+00 BMatC= 1.25D-08 BMatP= 1.77D-08
 IDIUse=1 WtCom= 1.00D+00 WtEn= 0.00D+00
 Coeff-Com:  0.452D+00 0.548D+00
 Coeff:      0.452D+00 0.548D+00
 Gap=     0.354 Goal=   None    Shift=    0.000
 RMSDP=1.95D-06 MaxDP=2.36D-05 DE=-6.61D-09 OVMax= 2.78D-05

 Cycle   9  Pass 1  IDiag  1:
 E= -154.984953169241     Delta-E=       -0.000000011063 Rises=F Damp=F
 DIIS: error= 2.06D-06 at cycle   3 NSaved=   3.
 NSaved= 3 IEnMin= 3 EnMin= -154.984953169241     IErMin= 3 ErrMin= 2.06D-06
 ErrMax= 2.06D-06  0.00D+00 EMaxC= 1.00D+00 BMatC= 3.20D-10 BMatP= 1.25D-08
 IDIUse=1 WtCom= 1.00D+00 WtEn= 0.00D+00
 Coeff-Com:  0.180D-01 0.139D+00 0.843D+00
 Coeff:      0.180D-01 0.139D+00 0.843D+00
 Gap=     0.354 Goal=   None    Shift=    0.000
 RMSDP=3.96D-07 MaxDP=4.28D-06 DE=-1.11D-08 OVMax= 5.86D-06

 Cycle  10  Pass 1  IDiag  1:
 E= -154.984953169496     Delta-E=       -0.000000000255 Rises=F Damp=F
 DIIS: error= 9.35D-07 at cycle   4 NSaved=   4.
 NSaved= 4 IEnMin= 4 EnMin= -154.984953169496     IErMin= 4 ErrMin= 9.35D-07
 ErrMax= 9.35D-07  0.00D+00 EMaxC= 1.00D+00 BMatC= 4.43D-11 BMatP= 3.20D-10
 IDIUse=1 WtCom= 1.00D+00 WtEn= 0.00D+00
 Coeff-Com: -0.885D-02 0.464D-01 0.407D+00 0.556D+00
 Coeff:     -0.885D-02 0.464D-01 0.407D+00 0.556D+00
 Gap=     0.354 Goal=   None    Shift=    0.000
 RMSDP=1.07D-07 MaxDP=1.66D-06 DE=-2.55D-10 OVMax= 1.43D-06

 Cycle  11  Pass 1  IDiag  1:
 E= -154.984953169525     Delta-E=       -0.000000000029 Rises=F Damp=F
 DIIS: error= 1.74D-07 at cycle   5 NSaved=   5.
 NSaved= 5 IEnMin= 5 EnMin= -154.984953169525     IErMin= 5 ErrMin= 1.74D-07
 ErrMax= 1.74D-07  0.00D+00 EMaxC= 1.00D+00 BMatC= 3.14D-12 BMatP= 4.43D-11
 IDIUse=1 WtCom= 1.00D+00 WtEn= 0.00D+00
 Coeff-Com: -0.557D-02 0.108D-01 0.125D+00 0.264D+00 0.605D+00
 Coeff:     -0.557D-02 0.108D-01 0.125D+00 0.264D+00 0.605D+00
 Gap=     0.354 Goal=   None    Shift=    0.000
 RMSDP=2.61D-08 MaxDP=3.75D-07 DE=-2.93D-11 OVMax= 3.47D-07

 Cycle  12  Pass 1  IDiag  1:
 E= -154.984953169527     Delta-E=       -0.000000000002 Rises=F Damp=F
 DIIS: error= 1.49D-08 at cycle   6 NSaved=   6.
 NSaved= 6 IEnMin= 6 EnMin= -154.984953169527     IErMin= 6 ErrMin= 1.49D-08
 ErrMax= 1.49D-08  0.00D+00 EMaxC= 1.00D+00 BMatC= 1.52D-14 BMatP= 3.14D-12
 IDIUse=1 WtCom= 1.00D+00 WtEn= 0.00D+00
 Coeff-Com: -0.533D-03 0.143D-03 0.497D-02 0.119D-01 0.736D-01 0.910D+00
 Coeff:     -0.533D-03 0.143D-03 0.497D-02 0.119D-01 0.736D-01 0.910D+00
 Gap=     0.354 Goal=   None    Shift=    0.000
 RMSDP=3.05D-09 MaxDP=2.98D-08 DE=-1.65D-12 OVMax= 3.86D-08

 SCF Done:  E(RB3LYP) =  -154.984953170     A.U. after   12 cycles
            NFock= 12  Conv=0.30D-08     -V/T= 1.9987
 KE= 1.551821865815D+02 PE=-5.363551925673D+02 EE= 1.395500949998D+02
 Leave Link  502 at Tue Apr 11 13:52:46 2017, MaxMem=  2013265920 cpu:         5.4
 (Enter /public/apps/gaussian//g09/l508.exe)
 QCSCF skips out because SCF is already converged.
 Leave Link  508 at Tue Apr 11 13:52:46 2017, MaxMem=  2013265920 cpu:         0.0
 (Enter /public/apps/gaussian//g09/l701.exe)
 Compute integral first derivatives.
 ... and contract with generalized density number  0.
 Leave Link  701 at Tue Apr 11 13:52:46 2017, MaxMem=  2013265920 cpu:         0.9
 (Enter /public/apps/gaussian//g09/l702.exe)
 L702 exits ... SP integral derivatives will be done elsewhere.
 Leave Link  702 at Tue Apr 11 13:52:46 2017, MaxMem=  2013265920 cpu:         0.1
 (Enter /public/apps/gaussian//g09/l703.exe)
 Compute integral first derivatives, UseDBF=F ICtDFT=           0.
 Integral derivatives from FoFJK, PRISM(SPDF).
 Calling FoFJK, ICntrl=      2127 FMM=F ISym2X=0 I1Cent= 0 IOpClX= 0 NMat=1 NMatS=1 NMatT=0.
 FoFJK:  IHMeth= 1 ICntrl=    2127 DoSepK=F KAlg= 0 I1Cent=   0 FoldK=F
 IRaf=         0 NMat=   1 IRICut=       1 DoRegI=T DoRafI=F ISym2E= 0.
 FoFCou: FMM=F IPFlag=           0 FMFlag=      100000 FMFlg1=         800
         NFxFlg=           0 DoJE=F BraDBF=F KetDBF=F FulRan=T
         wScrn=  0.000000 ICntrl=    2127 IOpCl=  0 I1Cent=           0 NGrid=           0
         NMat0=    1 NMatS0=      1 NMatT0=    0 NMatD0=    1 NMtDS0=    0 NMtDT0=    0
 Symmetry not used in FoFCou.
 Leave Link  703 at Tue Apr 11 13:52:47 2017, MaxMem=  2013265920 cpu:         2.3
 (Enter /public/apps/gaussian//g09/l716.exe)
 Dipole        = 1.55160046D-01 5.96837158D-01-1.00065038D-06
 ***** Axes restored to original set *****
 -------------------------------------------------------------------
 Center     Atomic                   Forces (Hartrees/Bohr)
 Number     Number              X              Y              Z
 -------------------------------------------------------------------
      1        6           0.026781957    0.004974533    0.004198560
      2        6          -0.016300594    0.005626994   -0.016608955
      3        1          -0.039983310    0.063326754   -0.003454024
      4        1          -0.011934067   -0.036028175   -0.064656061
      5        1          -0.028995895   -0.042032283    0.054945919
      6        1           0.038234425   -0.067724125    0.008639478
      7        8          -0.056698161    0.023126182   -0.063527817
      8        1           0.009910978    0.032604277    0.070442419
      9        1           0.078984667    0.016125843    0.010020481
 -------------------------------------------------------------------
 Cartesian Forces:  Max     0.078984667 RMS     0.040748516
 Leave Link  716 at Tue Apr 11 13:52:47 2017, MaxMem=  2013265920 cpu:         0.1
 (Enter /public/apps/gaussian//g09/l103.exe)

 GradGradGradGradGradGradGradGradGradGradGradGradGradGradGradGradGradGrad
 Berny optimization.
 Using GEDIIS/GDIIS optimizer.
 FormGI is forming the generalized inverse of G from B-inverse, IUseBI=4.
 Internal  Forces:  Max     0.081228063 RMS     0.036404268
 Search for a local minimum.
 Step number   2 out of a maximum of   43
 All quantities printed in internal units (Hartrees-Bohrs-Radians)
 RMS Force = .36404D-01 SwitMx=.10000D-02 MixMth= 1
 Mixed Optimization -- RFO/linear search
 Update second derivatives using D2CorX and points    1    2
 DE= -9.16D-02 DEPred=-9.71D-02 R= 9.43D-01
 TightC=F SS=  1.41D+00  RLast= 3.00D-01 DXNew= 5.0454D-01 9.0125D-01
 Trust test= 9.43D-01 RLast= 3.00D-01 DXMaxT set to 5.05D-01
 ITU=  1  0
 Use linear search instead of GDIIS.
     Eigenvalues ---    0.02089   0.03015   0.06397   0.06856   0.06875
     Eigenvalues ---    0.07071   0.11780   0.13979   0.15992   0.16000
     Eigenvalues ---    0.16000   0.16071   0.22047   0.46251   0.57671
     Eigenvalues ---    0.57681   0.57681   0.57681   0.63149   0.68688
     Eigenvalues ---    0.88648
 RFO step:  Lambda=-2.86892843D-03 EMin= 2.08879877D-02
 Quartic linear search produced a step of  1.54372.
 Iteration  1 RMS(Cart)=  0.10726172 RMS(Int)=  0.00215283
 Iteration  2 RMS(Cart)=  0.00200928 RMS(Int)=  0.00026418
 Iteration  3 RMS(Cart)=  0.00000373 RMS(Int)=  0.00026416
 Iteration  4 RMS(Cart)=  0.00000000 RMS(Int)=  0.00026416
 ITry= 1 IFail=0 DXMaxC= 2.19D-01 DCOld= 1.00D+10 DXMaxT= 5.05D-01 DXLimC= 3.00D+00 Rises=F
 Variable       Old X    -DE/DX   Delta X   Delta X   Delta X     New X
                                 (Linear)    (Quad)   (Total)
    R1        2.74160   0.05572   0.14818   0.01910   0.16727   2.90887
    R2        1.90515   0.07493   0.16967   0.00613   0.17580   2.08095
    R3        1.90515   0.07493   0.16967   0.00613   0.17580   2.08095
    R4        1.90538   0.07498   0.17003   0.00567   0.17570   2.08108
    R5        1.91115   0.07804   0.17893   0.00220   0.18112   2.09227
    R6        2.54919   0.06996   0.14286  -0.00389   0.13897   2.68816
    R7        1.91115   0.07804   0.17893   0.00219   0.18113   2.09227
    R8        1.69700   0.08123   0.14008  -0.02232   0.11776   1.81476
    A1        1.91616   0.00241   0.00854   0.01635   0.02463   1.94079
    A2        1.91616   0.00241   0.00854   0.01635   0.02462   1.94079
    A3        1.91947   0.00210   0.01364   0.00143   0.01480   1.93427
    A4        1.90386  -0.00271  -0.01045  -0.02005  -0.03075   1.87311
    A5        1.90400  -0.00216  -0.01025  -0.00729  -0.01779   1.88621
    A6        1.90400  -0.00216  -0.01025  -0.00729  -0.01779   1.88621
    A7        1.90797   0.00060  -0.00411   0.00655   0.00274   1.91071
    A8        1.91136  -0.00463   0.00113  -0.04318  -0.04164   1.86971
    A9        1.90797   0.00060  -0.00411   0.00655   0.00274   1.91071
   A10        1.91684   0.00335   0.00959   0.04059   0.05009   1.96693
   A11        1.90275  -0.00327  -0.01217  -0.05129  -0.06417   1.83858
   A12        1.91684   0.00335   0.00959   0.04059   0.05009   1.96693
   A13        1.93059   0.00139   0.03081  -0.05289  -0.02208   1.90851
    D1        3.13592  -0.00146  -0.00877  -0.02511  -0.03383   3.10209
    D2       -1.04645   0.00017   0.00114   0.00217   0.00332  -1.04314
    D3        1.05436   0.00180   0.01106   0.02946   0.04046   1.09482
    D4       -1.05436  -0.00180  -0.01106  -0.02946  -0.04046  -1.09482
    D5        1.04645  -0.00017  -0.00114  -0.00217  -0.00332   1.04314
    D6       -3.13592   0.00146   0.00877   0.02511   0.03382  -3.10209
    D7        1.04078  -0.00163  -0.00991  -0.02729  -0.03714   1.00364
    D8        3.14159   0.00000   0.00000   0.00000   0.00000  -3.14159
    D9       -1.04078   0.00163   0.00991   0.02728   0.03714  -1.00364
   D10       -3.14159   0.00000   0.00000   0.00000   0.00000   3.14159
   D11       -1.04619  -0.00007   0.00155   0.00630   0.00715  -1.03904
   D12        1.04619   0.00007  -0.00155  -0.00630  -0.00715   1.03904
         Item               Value     Threshold  Converged?
 Maximum Force            0.081228     0.000450     NO 
 RMS     Force            0.036404     0.000300     NO 
 Maximum Displacement     0.219142     0.001800     NO 
 RMS     Displacement     0.107427     0.001200     NO 
 Predicted change in Energy=-2.278341D-02
 Lowest energy point so far.  Saving SCF results.
 GradGradGradGradGradGradGradGradGradGradGradGradGradGradGradGradGradGrad

 Leave Link  103 at Tue Apr 11 13:52:48 2017, MaxMem=  2013265920 cpu:         0.1
 (Enter /public/apps/gaussian//g09/l202.exe)
                          Input orientation:                          
 ---------------------------------------------------------------------
 Center     Atomic      Atomic             Coordinates (Angstroms)
 Number     Number       Type             X           Y           Z
 ---------------------------------------------------------------------
      1          6           0       -0.802577    0.009938   -0.077761
      2          6           0        0.693101    0.286546    0.158672
      3          1           0       -1.378439    0.947410   -0.124111
      4          1           0       -0.963819   -0.521245   -1.028794
      5          1           0       -1.219562   -0.607387    0.733294
      6          1           0        1.237621   -0.673958    0.241052
      7          8           0        1.148423    1.084215   -0.927581
      8          1           0        0.826101    0.783717    1.138971
      9          1           0        2.082153    1.276445   -0.811712
 ---------------------------------------------------------------------
                    Distance matrix (angstroms):
                    1          2          3          4          5
     1  C    0.000000
     2  C    1.539306   0.000000
     3  H    1.101189   2.192712   0.000000
     4  H    1.101189   2.192711   1.774065   0.000000
     5  H    1.101262   2.188055   1.782633   1.782633   0.000000
     6  H    2.175262   1.107184   3.099346   2.546010   2.506887
     7  O    2.383834   1.422512   2.655054   2.655054   3.350727
     8  H    2.175261   1.107183   2.546010   3.099345   2.506886
     9  H    3.234871   1.962399   3.543551   3.543551   4.103314
                    6          7          8          9
     6  H    0.000000
     7  O    2.113015   0.000000
     8  H    1.760802   2.113014   0.000000
     9  H    2.371838   0.960328   2.371837   0.000000
 Stoichiometry    C2H6O
 Framework group  C1[X(C2H6O)]
 Deg. of freedom    21
 Full point group                 C1      NOp   1
 RotChk:  IX=0 Diff= 5.56D-03
 Largest Abelian subgroup         C1      NOp   1
 Largest concise Abelian subgroup C1      NOp   1
                         Standard orientation:                         
 ---------------------------------------------------------------------
 Center     Atomic      Atomic             Coordinates (Angstroms)
 Number     Number       Type             X           Y           Z
 ---------------------------------------------------------------------
      1          6           0       -1.227096   -0.223085    0.000000
      2          6           0        0.100241    0.556428    0.000000
      3          1           0       -1.308680   -0.870492   -0.887032
      4          1           0       -1.308680   -0.870491    0.887033
      5          1           0       -2.085954    0.466220   -0.000001
      6          1           0        0.134563    1.226930    0.880401
      7          8           0        1.149888   -0.403665    0.000000
      8          1           0        0.134563    1.226928   -0.880401
      9          1           0        1.996213    0.050167    0.000000
 ---------------------------------------------------------------------
 Rotational constants (GHZ):     34.2659078      9.3037186      8.0509966
 Leave Link  202 at Tue Apr 11 13:52:48 2017, MaxMem=  2013265920 cpu:         0.0
 (Enter /public/apps/gaussian//g09/l301.exe)
 Basis read from rwf:  (5D, 7F)
 No pseudopotential information found on rwf file.
 There are    57 symmetry adapted cartesian basis functions of A   symmetry.
 There are    54 symmetry adapted basis functions of A   symmetry.
    54 basis functions,   108 primitive gaussians,    57 cartesian basis functions
    13 alpha electrons       13 beta electrons
       nuclear repulsion energy        81.2516860976 Hartrees.
 IExCor=  402 DFT=T Ex+Corr=B3LYP ExCW=0 ScaHFX=  0.200000
 ScaDFX=  0.800000  0.720000  1.000000  0.810000 ScalE2=  1.000000  1.000000
 IRadAn=      0 IRanWt=     -1 IRanGd=            0 ICorTp=0 IEmpDi=  4
 NAtoms=    9 NActive=    9 NUniq=    9 SFac= 1.00D+00 NAtFMM=   60 NAOKFM=F Big=F
 Integral buffers will be    131072 words long.
 Raffenetti 2 integral format.
 Two-electron integral symmetry is turned on.
 No density basis found on file   724.
 Leave Link  301 at Tue Apr 11 13:52:49 2017, MaxMem=  2013265920 cpu:         0.4
 (Enter /public/apps/gaussian//g09/l302.exe)
 NPDir=0 NMtPBC=     1 NCelOv=     1 NCel=       1 NClECP=     1 NCelD=      1
         NCelK=      1 NCelE2=     1 NClLst=     1 CellRange=     0.0.
 One-electron integrals computed using PRISM.
 NBasis=    54 RedAO= T EigKep=  7.31D-03  NBF=    54
 NBsUse=    54 1.00D-06 EigRej= -1.00D+00 NBFU=    54
 Precomputing XC quadrature grid using
 IXCGrd= 4 IRadAn=           0 IRanWt=          -1 IRanGd=           0 AccXCQ= 0.00D+00.
 Generated NRdTot=       0 NPtTot=           0 NUsed=           0 NTot=          32
 NSgBfM=    57    57    57    57    57 MxSgAt=     9 MxSgA2=     9.
 Leave Link  302 at Tue Apr 11 13:52:49 2017, MaxMem=  2013265920 cpu:         1.0
 (Enter /public/apps/gaussian//g09/l303.exe)
 DipDrv:  MaxL=1.
 Leave Link  303 at Tue Apr 11 13:52:51 2017, MaxMem=  2013265920 cpu:         0.2
 (Enter /public/apps/gaussian//g09/l401.exe)
 Initial guess from the checkpoint file:  "1.chk"
 B after Tr=     0.000000    0.000000    0.000000
         Rot=    0.999999    0.000000    0.000000    0.001484 Ang=   0.17 deg.
 Guess basis will be translated and rotated to current coordinates.
 JPrj=2 DoOrth=T DoCkMO=T.
 Generating alternative initial guess.
 ExpMin= 1.61D-01 ExpMax= 5.48D+03 ExpMxC= 8.25D+02 IAcc=1 IRadAn=         1 AccDes= 0.00D+00
 Harris functional with IExCor=  402 and IRadAn=       1 diagonalized for initial guess.
 HarFok:  IExCor=  402 AccDes= 0.00D+00 IRadAn=         1 IDoV= 1 UseB2=F ITyADJ=14
 ICtDFT=  3500011 ScaDFX=  1.000000  1.000000  1.000000  1.000000
 FoFCou: FMM=F IPFlag=           0 FMFlag=      100000 FMFlg1=           0
         NFxFlg=           0 DoJE=T BraDBF=F KetDBF=T FulRan=T
         wScrn=  0.000000 ICntrl=     500 IOpCl=  0 I1Cent=   200000004 NGrid=           0
         NMat0=    1 NMatS0=      1 NMatT0=    0 NMatD0=    1 NMtDS0=    0 NMtDT0=    0
 Petite list used in FoFCou.
 Harris En= -155.067618302672    
 Leave Link  401 at Tue Apr 11 13:52:51 2017, MaxMem=  2013265920 cpu:         1.3
 (Enter /public/apps/gaussian//g09/l502.exe)
 Closed shell SCF:
 Using DIIS extrapolation, IDIIS=  1040.
 Integral symmetry usage will be decided dynamically.
 Keep R1 ints in memory in canonical form, NReq=2009984.
 IVT=       29191 IEndB=       29191 NGot=  2013265920 MDV=  2012133375
 LenX=  2012133375 LenY=  2012129685
 Requested convergence on RMS density matrix=1.00D-08 within 128 cycles.
 Requested convergence on MAX density matrix=1.00D-06.
 Requested convergence on             energy=1.00D-06.
 No special actions if energy rises.
 FoFCou: FMM=F IPFlag=           0 FMFlag=           0 FMFlg1=           0
         NFxFlg=           0 DoJE=F BraDBF=F KetDBF=F FulRan=T
         wScrn=  0.000000 ICntrl=     600 IOpCl=  0 I1Cent=           0 NGrid=           0
         NMat0=    1 NMatS0=   1485 NMatT0=    0 NMatD0=    1 NMtDS0=    0 NMtDT0=    0
 Symmetry not used in FoFCou.
 Integral accuracy reduced to 1.0D-05 until final iterations.

 Cycle   1  Pass 0  IDiag  1:
 E= -155.016548984218    
 DIIS: error= 1.61D-02 at cycle   1 NSaved=   1.
 NSaved= 1 IEnMin= 1 EnMin= -155.016548984218     IErMin= 1 ErrMin= 1.61D-02
 ErrMax= 1.61D-02  0.00D+00 EMaxC= 1.00D-01 BMatC= 8.78D-03 BMatP= 8.78D-03
 IDIUse=3 WtCom= 8.39D-01 WtEn= 1.61D-01
 Coeff-Com:  0.100D+01
 Coeff-En:   0.100D+01
 Coeff:      0.100D+01
 Recover alternate guess density for next cycle.
 RMSDP=6.29D-03 MaxDP=5.88D-02              OVMax= 0.00D+00

 Cycle   2  Pass 0  IDiag  1:
 E= -154.901451667437     Delta-E=        0.115097316782 Rises=F Damp=F
 Switch densities from cycles 1 and 2 for lowest energy.
 DIIS: error= 4.81D-02 at cycle   2 NSaved=   2.
 NSaved= 2 IEnMin= 1 EnMin= -155.016548984218     IErMin= 1 ErrMin= 1.61D-02
 ErrMax= 4.81D-02  0.00D+00 EMaxC= 1.00D+00 BMatC= 1.28D-01 BMatP= 8.78D-03
 IDIUse=1 WtCom= 1.00D+00 WtEn= 0.00D+00
 Coeff-Com:  0.110D+01-0.101D+00
 Coeff:      0.110D+01-0.101D+00
 Gap=     0.360 Goal=   None    Shift=    0.000
 RMSDP=2.67D-03 MaxDP=2.83D-02 DE= 1.15D-01 OVMax= 9.22D-02

 Cycle   3  Pass 0  IDiag  1:
 E= -155.025026757214     Delta-E=       -0.123575089778 Rises=F Damp=F
 DIIS: error= 6.95D-03 at cycle   3 NSaved=   3.
 NSaved= 3 IEnMin= 3 EnMin= -155.025026757214     IErMin= 3 ErrMin= 6.95D-03
 ErrMax= 6.95D-03  0.00D+00 EMaxC= 1.00D+00 BMatC= 2.38D-03 BMatP= 8.78D-03
 IDIUse=1 WtCom= 1.00D+00 WtEn= 0.00D+00
 Coeff-Com:  0.313D+00-0.102D-01 0.697D+00
 Coeff:      0.313D+00-0.102D-01 0.697D+00
 Gap=     0.339 Goal=   None    Shift=    0.000
 RMSDP=1.15D-03 MaxDP=1.24D-02 DE=-1.24D-01 OVMax= 1.59D-02

 Cycle   4  Pass 0  IDiag  1:
 E= -155.026535527425     Delta-E=       -0.001508770210 Rises=F Damp=F
 DIIS: error= 3.21D-03 at cycle   4 NSaved=   4.
 NSaved= 4 IEnMin= 4 EnMin= -155.026535527425     IErMin= 4 ErrMin= 3.21D-03
 ErrMax= 3.21D-03  0.00D+00 EMaxC= 1.00D+00 BMatC= 1.05D-03 BMatP= 2.38D-03
 IDIUse=1 WtCom= 1.00D+00 WtEn= 0.00D+00
 Coeff-Com:  0.327D-02 0.234D-01 0.394D+00 0.579D+00
 Coeff:      0.327D-02 0.234D-01 0.394D+00 0.579D+00
 Gap=     0.342 Goal=   None    Shift=    0.000
 RMSDP=4.32D-04 MaxDP=5.56D-03 DE=-1.51D-03 OVMax= 6.09D-03

 Cycle   5  Pass 0  IDiag  1:
 E= -155.027376451365     Delta-E=       -0.000840923941 Rises=F Damp=F
 DIIS: error= 3.99D-04 at cycle   5 NSaved=   5.
 NSaved= 5 IEnMin= 5 EnMin= -155.027376451365     IErMin= 5 ErrMin= 3.99D-04
 ErrMax= 3.99D-04  0.00D+00 EMaxC= 1.00D+00 BMatC= 7.33D-06 BMatP= 1.05D-03
 IDIUse=1 WtCom= 1.00D+00 WtEn= 0.00D+00
 Coeff-Com: -0.903D-02 0.675D-02 0.916D-01 0.166D+00 0.745D+00
 Coeff:     -0.903D-02 0.675D-02 0.916D-01 0.166D+00 0.745D+00
 Gap=     0.342 Goal=   None    Shift=    0.000
 RMSDP=4.71D-05 MaxDP=4.42D-04 DE=-8.41D-04 OVMax= 7.64D-04

 Cycle   6  Pass 0  IDiag  1:
 E= -155.027381756258     Delta-E=       -0.000005304893 Rises=F Damp=F
 DIIS: error= 8.81D-05 at cycle   6 NSaved=   6.
 NSaved= 6 IEnMin= 6 EnMin= -155.027381756258     IErMin= 6 ErrMin= 8.81D-05
 ErrMax= 8.81D-05  0.00D+00 EMaxC= 1.00D+00 BMatC= 4.55D-07 BMatP= 7.33D-06
 IDIUse=1 WtCom= 1.00D+00 WtEn= 0.00D+00
 Coeff-Com: -0.345D-02 0.228D-02 0.286D-01 0.533D-01 0.305D+00 0.614D+00
 Coeff:     -0.345D-02 0.228D-02 0.286D-01 0.533D-01 0.305D+00 0.614D+00
 Gap=     0.342 Goal=   None    Shift=    0.000
 RMSDP=1.32D-05 MaxDP=1.54D-04 DE=-5.30D-06 OVMax= 1.99D-04

 Cycle   7  Pass 0  IDiag  1:
 E= -155.027382150894     Delta-E=       -0.000000394636 Rises=F Damp=F
 DIIS: error= 2.80D-05 at cycle   7 NSaved=   7.
 NSaved= 7 IEnMin= 7 EnMin= -155.027382150894     IErMin= 7 ErrMin= 2.80D-05
 ErrMax= 2.80D-05  0.00D+00 EMaxC= 1.00D+00 BMatC= 4.36D-08 BMatP= 4.55D-07
 IDIUse=1 WtCom= 1.00D+00 WtEn= 0.00D+00
 Coeff-Com: -0.173D-03-0.213D-04-0.214D-02-0.339D-02 0.179D-01 0.250D+00
 Coeff-Com:  0.738D+00
 Coeff:     -0.173D-03-0.213D-04-0.214D-02-0.339D-02 0.179D-01 0.250D+00
 Coeff:      0.738D+00
 Gap=     0.342 Goal=   None    Shift=    0.000
 RMSDP=3.05D-06 MaxDP=4.02D-05 DE=-3.95D-07 OVMax= 4.93D-05

 Initial convergence to 1.0D-05 achieved.  Increase integral accuracy.
 Cycle   8  Pass 1  IDiag  1:
 E= -155.027381844619     Delta-E=        0.000000306276 Rises=F Damp=F
 DIIS: error= 1.00D-05 at cycle   1 NSaved=   1.
 NSaved= 1 IEnMin= 1 EnMin= -155.027381844619     IErMin= 1 ErrMin= 1.00D-05
 ErrMax= 1.00D-05  0.00D+00 EMaxC= 1.00D+00 BMatC= 5.26D-09 BMatP= 5.26D-09
 IDIUse=1 WtCom= 1.00D+00 WtEn= 0.00D+00
 Coeff-Com:  0.100D+01
 Coeff:      0.100D+01
 Gap=     0.342 Goal=   None    Shift=    0.000
 RMSDP=3.05D-06 MaxDP=4.02D-05 DE= 3.06D-07 OVMax= 2.22D-05

 Cycle   9  Pass 1  IDiag  1:
 E= -155.027381851426     Delta-E=       -0.000000006808 Rises=F Damp=F
 DIIS: error= 2.07D-06 at cycle   2 NSaved=   2.
 NSaved= 2 IEnMin= 2 EnMin= -155.027381851426     IErMin= 2 ErrMin= 2.07D-06
 ErrMax= 2.07D-06  0.00D+00 EMaxC= 1.00D+00 BMatC= 3.41D-10 BMatP= 5.26D-09
 IDIUse=1 WtCom= 1.00D+00 WtEn= 0.00D+00
 Coeff-Com:  0.742D-01 0.926D+00
 Coeff:      0.742D-01 0.926D+00
 Gap=     0.342 Goal=   None    Shift=    0.000
 RMSDP=5.76D-07 MaxDP=6.25D-06 DE=-6.81D-09 OVMax= 7.96D-06

 Cycle  10  Pass 1  IDiag  1:
 E= -155.027381851411     Delta-E=        0.000000000015 Rises=F Damp=F
 DIIS: error= 2.47D-06 at cycle   3 NSaved=   3.
 NSaved= 3 IEnMin= 2 EnMin= -155.027381851426     IErMin= 2 ErrMin= 2.07D-06
 ErrMax= 2.47D-06  0.00D+00 EMaxC= 1.00D+00 BMatC= 3.87D-10 BMatP= 3.41D-10
 IDIUse=1 WtCom= 1.00D+00 WtEn= 0.00D+00
 Coeff-Com: -0.220D-01 0.521D+00 0.501D+00
 Coeff:     -0.220D-01 0.521D+00 0.501D+00
 Gap=     0.342 Goal=   None    Shift=    0.000
 RMSDP=2.87D-07 MaxDP=3.34D-06 DE= 1.49D-11 OVMax= 3.91D-06

 Cycle  11  Pass 1  IDiag  1:
 E= -155.027381851759     Delta-E=       -0.000000000348 Rises=F Damp=F
 DIIS: error= 3.21D-07 at cycle   4 NSaved=   4.
 NSaved= 4 IEnMin= 4 EnMin= -155.027381851759     IErMin= 4 ErrMin= 3.21D-07
 ErrMax= 3.21D-07  0.00D+00 EMaxC= 1.00D+00 BMatC= 5.93D-12 BMatP= 3.41D-10
 IDIUse=1 WtCom= 1.00D+00 WtEn= 0.00D+00
 Coeff-Com: -0.115D-01 0.198D+00 0.222D+00 0.592D+00
 Coeff:     -0.115D-01 0.198D+00 0.222D+00 0.592D+00
 Gap=     0.342 Goal=   None    Shift=    0.000
 RMSDP=4.95D-08 MaxDP=5.71D-07 DE=-3.48D-10 OVMax= 6.66D-07

 Cycle  12  Pass 1  IDiag  1:
 E= -155.027381851763     Delta-E=       -0.000000000004 Rises=F Damp=F
 DIIS: error= 1.30D-07 at cycle   5 NSaved=   5.
 NSaved= 5 IEnMin= 5 EnMin= -155.027381851763     IErMin= 5 ErrMin= 1.30D-07
 ErrMax= 1.30D-07  0.00D+00 EMaxC= 1.00D+00 BMatC= 8.18D-13 BMatP= 5.93D-12
 IDIUse=1 WtCom= 1.00D+00 WtEn= 0.00D+00
 Coeff-Com: -0.341D-02 0.428D-01 0.597D-01 0.305D+00 0.596D+00
 Coeff:     -0.341D-02 0.428D-01 0.597D-01 0.305D+00 0.596D+00
 Gap=     0.342 Goal=   None    Shift=    0.000
 RMSDP=1.47D-08 MaxDP=1.90D-07 DE=-3.98D-12 OVMax= 2.00D-07

 Cycle  13  Pass 1  IDiag  1:
 E= -155.027381851764     Delta-E=       -0.000000000001 Rises=F Damp=F
 DIIS: error= 1.17D-08 at cycle   6 NSaved=   6.
 NSaved= 6 IEnMin= 6 EnMin= -155.027381851764     IErMin= 6 ErrMin= 1.17D-08
 ErrMax= 1.17D-08  0.00D+00 EMaxC= 1.00D+00 BMatC= 1.20D-14 BMatP= 8.18D-13
 IDIUse=1 WtCom= 1.00D+00 WtEn= 0.00D+00
 Coeff-Com: -0.187D-03-0.168D-02 0.170D-02 0.450D-01 0.150D+00 0.805D+00
 Coeff:     -0.187D-03-0.168D-02 0.170D-02 0.450D-01 0.150D+00 0.805D+00
 Gap=     0.342 Goal=   None    Shift=    0.000
 RMSDP=2.41D-09 MaxDP=2.03D-08 DE=-6.25D-13 OVMax= 3.53D-08

 SCF Done:  E(RB3LYP) =  -155.027381852     A.U. after   13 cycles
            NFock= 13  Conv=0.24D-08     -V/T= 2.0064
 KE= 1.540343496987D+02 PE=-5.248540969450D+02 EE= 1.345406792969D+02
 Leave Link  502 at Tue Apr 11 13:52:52 2017, MaxMem=  2013265920 cpu:         5.6
 (Enter /public/apps/gaussian//g09/l508.exe)
 QCSCF skips out because SCF is already converged.
 Leave Link  508 at Tue Apr 11 13:52:52 2017, MaxMem=  2013265920 cpu:         0.0
 (Enter /public/apps/gaussian//g09/l701.exe)
 Compute integral first derivatives.
 ... and contract with generalized density number  0.
 Leave Link  701 at Tue Apr 11 13:52:53 2017, MaxMem=  2013265920 cpu:         0.9
 (Enter /public/apps/gaussian//g09/l702.exe)
 L702 exits ... SP integral derivatives will be done elsewhere.
 Leave Link  702 at Tue Apr 11 13:52:53 2017, MaxMem=  2013265920 cpu:         0.1
 (Enter /public/apps/gaussian//g09/l703.exe)
 Compute integral first derivatives, UseDBF=F ICtDFT=           0.
 Integral derivatives from FoFJK, PRISM(SPDF).
 Calling FoFJK, ICntrl=      2127 FMM=F ISym2X=0 I1Cent= 0 IOpClX= 0 NMat=1 NMatS=1 NMatT=0.
 FoFJK:  IHMeth= 1 ICntrl=    2127 DoSepK=F KAlg= 0 I1Cent=   0 FoldK=F
 IRaf=         0 NMat=   1 IRICut=       1 DoRegI=T DoRafI=F ISym2E= 0.
 FoFCou: FMM=F IPFlag=           0 FMFlag=      100000 FMFlg1=         800
         NFxFlg=           0 DoJE=F BraDBF=F KetDBF=F FulRan=T
         wScrn=  0.000000 ICntrl=    2127 IOpCl=  0 I1Cent=           0 NGrid=           0
         NMat0=    1 NMatS0=      1 NMatT0=    0 NMatD0=    1 NMtDS0=    0 NMtDT0=    0
 Symmetry not used in FoFCou.
 Leave Link  703 at Tue Apr 11 13:52:53 2017, MaxMem=  2013265920 cpu:         2.3
 (Enter /public/apps/gaussian//g09/l716.exe)
 Dipole        = 1.50297230D-01 6.06136149D-01-9.12235727D-07
 ***** Axes restored to original set *****
 -------------------------------------------------------------------
 Center     Atomic                   Forces (Hartrees/Bohr)
 Number     Number              X              Y              Z
 -------------------------------------------------------------------
      1        6           0.001900344    0.000019239    0.000839588
      2        6          -0.010327721   -0.003468852    0.000897183
      3        1           0.003394587   -0.001510555    0.000747597
      4        1           0.002617401    0.001242252    0.002443337
      5        1           0.001845495    0.001365176   -0.001370437
      6        1           0.000291993    0.001457985   -0.004062805
      7        8          -0.005089107   -0.002454602    0.001652338
      8        1          -0.000144056    0.003003152   -0.003110521
      9        1           0.005511064    0.000346204    0.001963720
 -------------------------------------------------------------------
 Cartesian Forces:  Max     0.010327721 RMS     0.003139511
 Leave Link  716 at Tue Apr 11 13:52:54 2017, MaxMem=  2013265920 cpu:         0.2
 (Enter /public/apps/gaussian//g09/l103.exe)

 GradGradGradGradGradGradGradGradGradGradGradGradGradGradGradGradGradGrad
 Berny optimization.
 Using GEDIIS/GDIIS optimizer.
 FormGI is forming the generalized inverse of G from B-inverse, IUseBI=4.
 Internal  Forces:  Max     0.010091144 RMS     0.002798057
 Search for a local minimum.
 Step number   3 out of a maximum of   43
 All quantities printed in internal units (Hartrees-Bohrs-Radians)
 RMS Force = .27981D-02 SwitMx=.10000D-02 MixMth= 1
 Mixed Optimization -- RFO/linear search
 Update second derivatives using D2CorX and points    2    3
 DE= -4.24D-02 DEPred=-2.28D-02 R= 1.86D+00
 TightC=F SS=  1.41D+00  RLast= 4.92D-01 DXNew= 8.4853D-01 1.4767D+00
[...]
     21  0.459936D-01  0.472371D-03  0.163826D-01 -0.187839D-02 -0.187839D-02
     22 -0.119388D-01  0.248917D-02  0.119469D-03  0.261634D-02 -0.258839D-02
     23  0.123976D-02 -0.179424D-02  0.296466D-03  0.316714D-02 -0.671627D-02
     24  0.144183D-01 -0.196181D-02  0.473462D-03 -0.960744D-03 -0.616547D-02
     25 -0.144183D-01  0.275006D-02 -0.473462D-03  0.616547D-02  0.960743D-03
     26 -0.123976D-02 -0.153335D-02 -0.296465D-03  0.671627D-02 -0.316714D-02
     27  0.119388D-01 -0.170092D-02 -0.119469D-03  0.258839D-02 -0.261634D-02
     28 -0.131785D-01  0.334060D-02 -0.176997D-03 -0.298518D-02  0.656226D-02
     29  0.000000D+00 -0.942817D-03  0.000000D+00 -0.243438D-02  0.243438D-02
     30  0.131785D-01 -0.111038D-02  0.176996D-03 -0.656226D-02  0.298518D-02
     31  0.000000D+00  0.336944D-02  0.000000D+00 -0.738912D-02  0.738912D-02
     32 -0.623028D-02 -0.526548D-02  0.233985D-02  0.400134D-02 -0.308181D-02
     33  0.623028D-02  0.653540D-03 -0.233985D-02  0.308181D-02 -0.400134D-02
               11            12            13            14            15 
     11  0.102299D+00
     12  0.131919D-01  0.522719D-01
     13 -0.398223D-01  0.922926D-02  0.512313D-01
     14 -0.398223D-01  0.922926D-02  0.911602D-02  0.512313D-01
     15 -0.889394D-02 -0.432966D-02 -0.286679D-02  0.382890D-02  0.738014D-01
     16  0.247578D-01  0.854942D-02 -0.352286D-02 -0.352286D-02 -0.379680D-01
     17 -0.889394D-02 -0.432966D-02  0.382889D-02 -0.286679D-02 -0.815809D-02
     18 -0.596019D-02 -0.116420D-02  0.212436D-02  0.620919D-03 -0.243535D-01
     19  0.424784D-02  0.214284D-02 -0.117626D-03 -0.117627D-03 -0.220607D-01
     20 -0.596019D-02 -0.116420D-02  0.620919D-03  0.212436D-02  0.206323D-01
     21  0.653239D-02  0.101358D-02 -0.195903D-02 -0.195903D-02 -0.525669D-02
     22  0.131053D-02 -0.779964D-02  0.618268D-02  0.174276D-03  0.701251D-02
     23  0.404671D-02 -0.651338D-02  0.489278D-02  0.103130D-02 -0.224063D-02
     24  0.678288D-02 -0.522713D-02  0.574981D-02 -0.258590D-03 -0.538844D-02
     25 -0.678288D-02  0.522713D-02  0.258589D-03 -0.574981D-02  0.939399D-02
     26 -0.404671D-02  0.651338D-02 -0.103130D-02 -0.489278D-02  0.140848D-03
     27 -0.131053D-02  0.779964D-02 -0.174276D-03 -0.618268D-02 -0.300697D-02
     28 -0.273618D-02 -0.128625D-02 -0.558466D-02  0.601753D-02  0.556753D-02
     29  0.000000D+00  0.000000D+00 -0.687456D-02  0.687456D-02 -0.368561D-02
     30  0.273618D-02  0.128626D-02 -0.601753D-02  0.558466D-02 -0.683343D-02
     31  0.000000D+00  0.000000D+00  0.265496D-02 -0.265496D-02 -0.246114D-01
     32  0.123351D-02 -0.583287D-03 -0.182804D-02  0.179425D-03  0.272823D-01
     33 -0.123351D-02  0.583287D-03 -0.179425D-03  0.182804D-02 -0.284727D-02
               16            17            18            19            20 
     16  0.163351D+00
     17 -0.379680D-01  0.738014D-01
     18 -0.586692D-01  0.206323D-01  0.614166D-01
     19  0.261391D-01 -0.220607D-01 -0.638588D-02  0.294440D-01
     20 -0.586693D-01 -0.243535D-01  0.807867D-02 -0.638588D-02  0.614166D-01
     21  0.235736D-01 -0.525669D-02 -0.839655D-02  0.319698D-02 -0.839656D-02
     22 -0.372628D-02  0.300697D-02 -0.123946D-01  0.536776D-02  0.977623D-03
     23  0.306840D-02 -0.140848D-03  0.117429D-01  0.614338D-03 -0.131350D-01
     24  0.986309D-02 -0.939399D-02 -0.236976D-02 -0.413908D-02  0.110024D-01
     25 -0.986309D-02  0.538844D-02 -0.110024D-01  0.413908D-02  0.236976D-02
     26 -0.306841D-02  0.224063D-02  0.131350D-01 -0.614339D-03 -0.117429D-01
     27  0.372628D-02 -0.701251D-02 -0.977623D-03 -0.536776D-02  0.123946D-01
     28 -0.679468D-02  0.683343D-02 -0.105639D-01  0.475342D-02  0.539051D-03
     29  0.000000D+00  0.368561D-02  0.135736D-01  0.000000D+00 -0.135736D-01
     30  0.679468D-02 -0.556753D-02 -0.539051D-03 -0.475342D-02  0.105639D-01
     31  0.000000D+00  0.246114D-01  0.748574D-02  0.000000D+00 -0.748574D-02
     32  0.219810D-01  0.284727D-02 -0.228831D-01 -0.143034D-01 -0.145722D-01
     33 -0.219810D-01 -0.272823D-01  0.145722D-01  0.143034D-01  0.228831D-01
               21            22            23            24            25 
     21  0.182168D+00
     22 -0.633424D-03  0.155902D-01
     23  0.564868D-03  0.235684D-02  0.172255D-01
     24  0.176316D-02  0.303448D-02  0.303379D-02  0.169441D-01
     25 -0.176316D-02  0.592370D-02 -0.798657D-02 -0.798587D-02  0.169441D-01
     26 -0.564867D-03 -0.730962D-02  0.688213D-02 -0.798657D-02  0.303378D-02
     27  0.633424D-03 -0.663197D-02 -0.730962D-02  0.592370D-02  0.303448D-02
     28 -0.119829D-02  0.530377D-02 -0.845185D-02 -0.792886D-02  0.598072D-02
     29  0.000000D+00 -0.792956D-02  0.641685D-02 -0.792955D-02 -0.792956D-02
     30  0.119829D-02 -0.725191D-02 -0.777490D-02  0.598072D-02 -0.792886D-02
     31  0.000000D+00  0.113135D-02 -0.437291D-02  0.113135D-02  0.113135D-02
     32  0.348729D-02 -0.470025D-04  0.185405D-02 -0.639035D-03 -0.186672D-03
     33 -0.348729D-02 -0.778705D-03  0.171438D-02 -0.186672D-03 -0.639035D-03
               26            27            28            29            30 
     26  0.172255D-01
     27  0.235684D-02  0.155902D-01
     28 -0.777490D-02 -0.725191D-02  0.160083D-01
     29  0.641685D-02 -0.792955D-02  0.225266D-02  0.165991D-01
     30 -0.845185D-02  0.530377D-02  0.277565D-02  0.225266D-02  0.160083D-01
     31 -0.437291D-02  0.113135D-02  0.263174D-02 -0.287252D-02  0.263174D-02
     32  0.171438D-02 -0.778705D-03 -0.117198D-02  0.729072D-03 -0.176402D-02
     33  0.185405D-02 -0.470025D-04 -0.176402D-02  0.729073D-03 -0.117198D-02
               31            32            33 
     31  0.184326D-01
     32 -0.729113D-02  0.264475D-01
     33 -0.729113D-02 -0.160165D-01  0.264475D-01
 Leave Link  716 at Tue Apr 11 13:57:41 2017, MaxMem=  2013265920 cpu:       109.0
 (Enter /public/apps/gaussian//g09/l103.exe)

 GradGradGradGradGradGradGradGradGradGradGradGradGradGradGradGradGradGrad
 Berny optimization.
 Red2BG is reusing G-inverse.
 Internal  Forces:  Max     0.000444153 RMS     0.000098684
 Search for a local minimum.
 Step number   1 out of a maximum of    2
 All quantities printed in internal units (Hartrees-Bohrs-Radians)
 Second derivative matrix not updated -- analytic derivatives used.
 ITU=  0
     Eigenvalues ---    0.00243   0.00357   0.04527   0.04606   0.05184
     Eigenvalues ---    0.06398   0.10371   0.12228   0.12706   0.13683
     Eigenvalues ---    0.16575   0.16896   0.24490   0.30720   0.31216
     Eigenvalues ---    0.31490   0.34055   0.34083   0.34755   0.38599
     Eigenvalues ---    0.50408
 Angle between quadratic step and forces=  28.95 degrees.
 Linear search not attempted -- first point.
 Iteration  1 RMS(Cart)=  0.00038092 RMS(Int)=  0.00000013
 Iteration  2 RMS(Cart)=  0.00000015 RMS(Int)=  0.00000007
 ITry= 1 IFail=0 DXMaxC= 9.26D-04 DCOld= 1.00D+10 DXMaxT= 3.00D-01 DXLimC= 3.00D+00 Rises=F
 Variable       Old X    -DE/DX   Delta X   Delta X   Delta X     New X
                                 (Linear)    (Quad)   (Total)
    R1        2.87403   0.00011   0.00000   0.00015   0.00015   2.87418
    R2        2.07178   0.00003   0.00000   0.00009   0.00009   2.07187
    R3        2.07178   0.00003   0.00000   0.00009   0.00009   2.07187
    R4        2.07318   0.00002   0.00000   0.00009   0.00009   2.07327
    R5        2.08763  -0.00009   0.00000  -0.00039  -0.00039   2.08724
    R6        2.68763   0.00044   0.00000   0.00156   0.00156   2.68919
    R7        2.08763  -0.00009   0.00000  -0.00039  -0.00039   2.08724
    R8        1.82601  -0.00022   0.00000  -0.00040  -0.00040   1.82561
    A1        1.92589   0.00006   0.00000   0.00039   0.00039   1.92628
    A2        1.92589   0.00006   0.00000   0.00039   0.00039   1.92628
    A3        1.93094   0.00002   0.00000   0.00025   0.00025   1.93120
    A4        1.88796  -0.00006   0.00000  -0.00029  -0.00029   1.88767
    A5        1.89609  -0.00005   0.00000  -0.00039  -0.00039   1.89570
    A6        1.89609  -0.00005   0.00000  -0.00039  -0.00039   1.89570
    A7        1.91823   0.00005   0.00000   0.00050   0.00050   1.91873
    A8        1.88161  -0.00010   0.00000  -0.00051  -0.00051   1.88110
    A9        1.91823   0.00005   0.00000   0.00050   0.00050   1.91873
   A10        1.93790   0.00003   0.00000  -0.00014  -0.00014   1.93775
   A11        1.87033  -0.00005   0.00000  -0.00017  -0.00017   1.87016
   A12        1.93790   0.00003   0.00000  -0.00014  -0.00014   1.93775
   A13        1.89047  -0.00008   0.00000  -0.00074  -0.00074   1.88974
    D1        3.12601  -0.00001   0.00000   0.00013   0.00013   3.12614
    D2       -1.04274   0.00000   0.00000  -0.00007  -0.00007  -1.04281
    D3        1.07169   0.00000   0.00000  -0.00026  -0.00026   1.07143
    D4       -1.07169   0.00000   0.00000   0.00026   0.00026  -1.07143
    D5        1.04274   0.00000   0.00000   0.00007   0.00007   1.04281
    D6       -3.12601   0.00001   0.00000  -0.00013  -0.00013  -3.12614
    D7        1.02716   0.00000   0.00000   0.00019   0.00019   1.02735
    D8       -3.14159   0.00000   0.00000   0.00000   0.00000  -3.14159
    D9       -1.02716   0.00000   0.00000  -0.00019  -0.00019  -1.02735
   D10        3.14159   0.00000   0.00000   0.00000   0.00000   3.14159
   D11       -1.03948   0.00001   0.00000   0.00020   0.00020  -1.03928
   D12        1.03948  -0.00001   0.00000  -0.00020  -0.00020   1.03928
         Item               Value     Threshold  Converged?
 Maximum Force            0.000444     0.000450     YES
 RMS     Force            0.000099     0.000300     YES
 Maximum Displacement     0.000926     0.001800     YES
 RMS     Displacement     0.000381     0.001200     YES
 Predicted change in Energy=-5.756948D-07
 Optimization completed.
    -- Stationary point found.
                           ----------------------------
                           !   Optimized Parameters   !
                           ! (Angstroms and Degrees)  !
 --------------------------                            --------------------------
 ! Name  Definition              Value          Derivative Info.                !
 --------------------------------------------------------------------------------
 ! R1    R(1,2)                  1.5209         -DE/DX =    0.0001              !
 ! R2    R(1,3)                  1.0963         -DE/DX =    0.0                 !
 ! R3    R(1,4)                  1.0963         -DE/DX =    0.0                 !
 ! R4    R(1,5)                  1.0971         -DE/DX =    0.0                 !
 ! R5    R(2,6)                  1.1047         -DE/DX =   -0.0001              !
 ! R6    R(2,7)                  1.4222         -DE/DX =    0.0004              !
 ! R7    R(2,8)                  1.1047         -DE/DX =   -0.0001              !
 ! R8    R(7,9)                  0.9663         -DE/DX =   -0.0002              !
 ! A1    A(2,1,3)              110.3456         -DE/DX =    0.0001              !
 ! A2    A(2,1,4)              110.3456         -DE/DX =    0.0001              !
 ! A3    A(2,1,5)              110.6348         -DE/DX =    0.0                 !
 ! A4    A(3,1,4)              108.1721         -DE/DX =   -0.0001              !
 ! A5    A(3,1,5)              108.6379         -DE/DX =    0.0                 !
 ! A6    A(4,1,5)              108.6379         -DE/DX =    0.0                 !
 ! A7    A(1,2,6)              109.9063         -DE/DX =    0.0                 !
 ! A8    A(1,2,7)              107.8082         -DE/DX =   -0.0001              !
 ! A9    A(1,2,8)              109.9063         -DE/DX =    0.0                 !
 ! A10   A(6,2,7)              111.0334         -DE/DX =    0.0                 !
 ! A11   A(6,2,8)              107.1622         -DE/DX =   -0.0001              !
 ! A12   A(7,2,8)              111.0334         -DE/DX =    0.0                 !
 ! A13   A(2,7,9)              108.3161         -DE/DX =   -0.0001              !
 ! D1    D(3,1,2,6)            179.1073         -DE/DX =    0.0                 !
 ! D2    D(3,1,2,7)            -59.7446         -DE/DX =    0.0                 !
 ! D3    D(3,1,2,8)             61.4034         -DE/DX =    0.0                 !
 ! D4    D(4,1,2,6)            -61.4034         -DE/DX =    0.0                 !
 ! D5    D(4,1,2,7)             59.7446         -DE/DX =    0.0                 !
 ! D6    D(4,1,2,8)           -179.1073         -DE/DX =    0.0                 !
 ! D7    D(5,1,2,6)             58.852          -DE/DX =    0.0                 !
 ! D8    D(5,1,2,7)           -180.0            -DE/DX =    0.0                 !
 ! D9    D(5,1,2,8)            -58.8519         -DE/DX =    0.0                 !
 ! D10   D(1,2,7,9)            180.0            -DE/DX =    0.0                 !
 ! D11   D(6,2,7,9)            -59.5579         -DE/DX =    0.0                 !
 ! D12   D(8,2,7,9)             59.5579         -DE/DX =    0.0                 !
 --------------------------------------------------------------------------------
 GradGradGradGradGradGradGradGradGradGradGradGradGradGradGradGradGradGrad

 Leave Link  103 at Tue Apr 11 13:57:42 2017, MaxMem=  2013265920 cpu:         0.1
 (Enter /public/apps/gaussian//g09/l9999.exe)
 1\1\GINC-N3\Freq\RB3LYP\Gen\C2H6O1\KCHRBNNT\11-Apr-2017\0\\#P Geom=All
 Check Guess=TCheck SCRF=Check GenChk RB3LYP/ChkBas Freq\\ethanol.car\\
 0,1\C,-0.802099242,0.0075807563,-0.0737153951\C,0.6758340713,0.2835277
 163,0.1556578587\H,-1.3632897049,0.9484044158,-0.1170348328\H,-0.94825
 29149,-0.5217262254,-1.0226271982\H,-1.2109964896,-0.6075382344,0.7374
 640423\H,1.2317497095,-0.6693455403,0.2140671353\O,1.1422946219,1.0811
 979589,-0.9254920367\H,0.8162233749,0.8025191579,1.120727782\H,2.08153
 934,1.2610601072,-0.7870184951\\Version=ES64L-G09RevD.01\State=1-A\HF=
 -155.0279671\RMSD=1.566e-09\RMSF=1.637e-04\ZeroPoint=0.0801327\Thermal
 =0.0843882\Dipole=0.3950531,-0.1718449,0.4600263\DipoleDeriv=-0.043276
 5,-0.0445125,0.009888,-0.0283842,0.0865698,-0.0028633,-0.0162945,-0.01
 02549,0.1019992,0.476107,0.1224574,-0.1950538,0.1044678,0.5985818,-0.1
 64203,-0.1658495,-0.1559583,0.6451126,-0.0211231,0.0685508,-0.0127264,
 0.1016381,-0.0844505,0.0047774,-0.0249254,-0.0015442,0.0637676,0.02518
 3,-0.0095683,-0.0174391,-0.0136403,0.019596,-0.0848897,-0.0523433,-0.0
 91866,-0.086585,0.0067904,-0.0386381,0.035827,-0.0559963,-0.0031131,0.
 0856904,0.0640061,0.0936457,-0.0572092,-0.1033896,0.104934,-0.0058934,
 0.0890079,-0.2010427,0.0535415,0.0291105,0.0339183,-0.0177296,-0.37439
 49,-0.1087122,0.2584753,-0.1131268,-0.6867661,0.1648214,0.265642,0.166
 8447,-0.702409,-0.0332998,-0.0379236,-0.0267549,-0.0551577,-0.0637724,
 -0.0997149,-0.007927,-0.0648942,-0.2250898,0.0674034,-0.0565874,-0.046
 3226,-0.0288084,0.3343971,0.0428402,-0.0914187,0.0301089,0.2781432\Pol
 ar=28.7743134,1.8378544,24.7687049,-0.5564823,-1.2521388,25.2562159\PG
 =C01 [X(C2H6O1)]\NImag=0\\0.49817880,-0.01439348,0.58208995,-0.0152354
 9,-0.00608316,0.58529918,-0.20277183,-0.01139594,-0.03588106,0.5276411
 8,-0.01860859,-0.08382095,-0.00900508,-0.03349686,0.55378386,-0.024172
 10,-0.00569949,-0.08594027,0.02657388,0.04069727,0.53442115,-0.1152821
 3,0.11454869,-0.00451003,-0.01937302,0.03223024,-0.00199930,0.12627428
 ,0.11687242,-0.24905554,0.00764972,-0.00406101,0.00613353,0.00014641,-
 0.12719924,0.26647006,-0.00515603,0.00693768,-0.05069094,-0.00339492,0
 .00636709,-0.00144878,0.00755391,-0.00842946,0.04863098,-0.05258260,-0
 .01432873,-0.02647274,-0.00537050,-0.01793509,-0.03319916,0.00194828,0
 .00675916,0.01540154,0.05682080,-0.01472874,-0.11308504,-0.11200257,-0
 .00082321,-0.00333041,-0.00462673,-0.00441784,-0.01253554,-0.02504323,
 0.01698337,0.11646188,-0.02894969,-0.11217218,-0.24936103,-0.00066792,
 -0.00205741,-0.00598737,0.00098133,0.00164786,0.00267235,0.03303606,0.
 12350453,0.26809270,-0.08568050,-0.05411624,0.07079425,-0.00537884,-0.
 01735000,0.02694174,0.00710346,0.00828784,-0.01408059,0.00084544,0.003
 85146,-0.00333014,0.09063812,-0.05533815,-0.13195271,0.11017703,0.0007
 2386,-0.00480895,0.00374256,-0.01198665,-0.01413114,0.02052997,0.00763
 780,0.01058930,-0.01200228,0.06131093,0.13915472,0.07277789,0.11073703
 ,-0.19487671,-0.00239921,-0.00454077,0.00356396,-0.00100484,-0.0008519
 5,-0.00021094,0.01036084,0.01693624,-0.01867335,-0.07943923,-0.1218330
 1,0.20817270,-0.01800083,0.02923437,0.00004914,-0.11802137,0.10544316,
 -0.00217605,-0.00648035,-0.00196696,-0.00139759,0.00181539,-0.00029115
 ,-0.00023331,0.00085671,-0.00031903,0.00056995,0.12473853,-0.00364443,
 0.00728886,-0.00097846,0.10556094,-0.22416163,-0.00259141,-0.00219896,
 0.00106626,-0.00042692,0.00040667,0.00054685,0.00051451,0.00114413,0.0
 0031319,-0.00010565,-0.11324300,0.24911864,-0.00391299,0.00379185,0.00
 074683,0.00026639,-0.00416299,-0.05424820,-0.00086422,0.00037870,0.000
 88256,0.00033867,0.00092242,0.00024974,0.00003181,-0.00021034,0.000184
 10,0.00066902,-0.00996320,0.05940352,-0.01884283,-0.02852212,0.0359635
 8,-0.10443189,-0.03893309,0.04550269,0.00339989,0.00066083,0.00080485,
 0.00285975,0.00037064,0.00023796,-0.00857967,-0.00190881,-0.00112696,0
 .00975818,0.00092082,-0.00961983,0.57731811,-0.00953414,-0.00581214,0.
 01109895,-0.01442334,-0.11822700,0.07848428,-0.00071594,0.00095975,-0.
 00084646,0.00171486,0.00015439,0.00003232,-0.00151145,0.00044839,-0.00
 038061,-0.01477554,-0.02053352,0.03468865,0.13479002,0.16086950,0.0051
 3867,0.00239668,0.00218069,0.00571377,0.06725135,-0.17236582,-0.000016
 58,-0.00080431,0.00039236,0.00111222,0.00000508,0.00173786,-0.00177203
 ,-0.00056273,0.00074204,0.00386504,0.01616398,-0.00987576,0.02430070,-
 0.12332921,0.25819507,-0.00488937,-0.01801153,-0.02958693,-0.05858970,
 -0.01374338,-0.02815158,0.00173121,0.00061117,0.00032125,-0.00685263,-
 0.00116663,-0.00114887,0.00112013,0.00011736,0.00071426,0.00373384,0.0
 1053572,0.01417858,0.00279999,0.00117251,0.01597425,0.06003062,-0.0000
 2462,-0.00268904,-0.00523732,-0.01548749,-0.11889569,-0.10579838,-0.00
 030388,0.00092370,0.00075115,-0.00169766,0.00112671,0.00047559,-0.0001
 0550,-0.00011129,0.00007386,-0.00367004,-0.01383542,-0.02436965,0.0006
 0973,0.01138186,0.02772875,0.01943610,0.12106279,-0.00144941,-0.003182
 61,-0.00238672,-0.02795383,-0.10348143,-0.21894586,0.00010191,0.000442
 79,-0.00004293,-0.00044355,0.00001966,0.00119440,-0.00076109,-0.000389
 87,0.00034515,-0.00063603,-0.00289014,0.00202945,0.00489141,0.00226830
 ,-0.03483294,0.02709175,0.10706144,0.25216731,-0.00012871,-0.00301503,
 0.00487927,-0.01370401,0.00239359,-0.00932011,0.00067838,0.00003580,-0
 .00005241,0.00051606,0.00022211,0.00007459,-0.00092485,-0.00023730,-0.
 00045269,0.00159989,0.00051812,-0.00108744,-0.46428152,-0.09671697,-0.
 05431605,0.00091592,0.00124337,-0.00084116,0.47532885,-0.00060026,-0.0
 0296338,0.00438090,-0.02659695,-0.00667277,-0.00435452,0.00004359,0.00
 016891,0.00016018,0.00045962,0.00007186,0.00005706,-0.00151116,0.00049
 850,-0.00003515,-0.00041181,0.00019678,-0.00107544,-0.06798801,-0.0292
 4124,0.01115040,0.00104867,0.00103638,0.00015186,0.09555632,0.03690496
 ,0.00095915,0.00327420,-0.00497103,0.03774288,0.00893198,0.00095118,-0
 .00024217,-0.00017979,-0.00018467,-0.00013388,0.00028460,0.00007470,0.
 00161528,0.00054867,0.00075305,-0.00071017,0.00027729,0.00062776,-0.10
 095439,-0.00201622,-0.04617350,0.00060728,-0.00068546,0.00047214,0.061
 11600,-0.01043528,0.04845038\\-0.00005893,-0.00004611,0.00004779,-0.00
 002425,0.00028464,-0.00047315,0.00006419,0.00000086,0.00000806,0.00005
 943,0.00001773,0.00001846,0.00003863,0.00000839,0.00000408,0.00002485,
 -0.00009759,-0.00003971,-0.00029538,-0.00031352,0.00037358,-0.00002509
 ,0.00007931,0.00006926,0.00021655,0.00006629,-0.00000836\\\@


 NECESSARY EVIL: ONE WE LIKE TOO MUCH TO RELINQUISH.
 Job cpu time:       0 days  0 hours  7 minutes 27.3 seconds.
 File lengths (MBytes):  RWF=      6 Int=      0 D2E=      0 Chk=      1 Scr=      1
 Normal termination of Gaussian 09 at Tue Apr 11 13:57:50 2017.
