 Entering Gaussian System, Link 0=g09
 Initial command:
 /public/apps/gaussian//g09/l1.exe "/tmp/603066.pbs/Gau-54635.inp" -scrdir="/tmp/603066.pbs/"
 Entering Link 1 = /public/apps/gaussian//g09/l1.exe PID=     54643.
  
 Copyright (c) 1988,1990,1992,1993,1995,1998,2003,2009,2013,
            Gaussian, Inc.  All Rights Reserved.
  
 This is part of the Gaussian(R) 09 program.  It is based on
 the Gaussian(R) 03 system (copyright 2003, Gaussian, Inc.),
 the Gaussian(R) 98 system (copyright 1998, Gaussian, Inc.),
 the Gaussian(R) 94 system (copyright 1995, Gaussian, Inc.),
 the Gaussian 92(TM) system (copyright 1992, Gaussian, Inc.),
 the Gaussian 90(TM) system (copyright 1990, Gaussian, Inc.),
 the Gaussian 88(TM) system (copyright 1988, Gaussian, Inc.),
 the Gaussian 86(TM) system (copyright 1986, Carnegie Mellon
 University), and the Gaussian 82(TM) system (copyright 1983,
 Carnegie Mellon University). Gaussian is a federally registered
 trademark of Gaussian, Inc.
  
 This software contains proprietary and confidential information,
 including trade secrets, belonging to Gaussian, Inc.
  
 This software is provided under written license and may be
 used, copied, transmitted, or stored only in accord with that
 written license.
  
 The following legend is applicable only to US Government
 contracts under FAR:
  
                    RESTRICTED RIGHTS LEGEND
  
 Use, reproduction and disclosure by the US Government is
 subject to restrictions as set forth in subparagraphs (a)
 and (c) of the Commercial Computer Software - Restricted
 Rights clause in FAR 52.227-19.
  
 Gaussian, Inc.
 340 Quinnipiac St., Bldg. 40, Wallingford CT 06492
  
  
 ---------------------------------------------------------------
 Warning -- This program may not be used in any manner that
 competes with the business of Gaussian, Inc. or will provide
 assistance to any competitor of Gaussian, Inc.  The licensee
 of this program is prohibited from giving any competitor of
 Gaussian, Inc. access to this program.  By using this program,
 the user acknowledges that Gaussian, Inc. is engaged in the
 business of creating and licensing software in the field of
 computational chemistry and represents and warrants to the
 licensee that it is not a competitor of Gaussian, Inc. and that
 it will not use this program in any manner prohibited above.
 ---------------------------------------------------------------
  

 Cite this work as:
 Gaussian 09, Revision D.01,
 M. J. Frisch, G. W. Trucks, H. B. Schlegel, G. E. Scuseria, 
 M. A. Robb, J. R. Cheeseman, G. Scalmani, V. Barone, B. Mennucci, 
 G. A. Petersson, H. Nakatsuji, M. Caricato, X. Li, H. P. Hratchian, 
 A. F. Izmaylov, J. Bloino, G. Zheng, J. L. Sonnenberg, M. Hada, 
 M. Ehara, K. Toyota, R. Fukuda, J. Hasegawa, M. Ishida, T. Nakajima, 
 Y. Honda, O. Kitao, H. Nakai, T. Vreven, J. A. Montgomery, Jr., 
 J. E. Peralta, F. Ogliaro, M. Bearpark, J. J. Heyd, E. Brothers, 
 K. N. Kudin, V. N. Staroverov, T. Keith, R. Kobayashi, J. Normand, 
 K. Raghavachari, A. Rendell, J. C. Burant, S. S. Iyengar, J. Tomasi, 
 M. Cossi, N. Rega, J. M. Millam, M. Klene, J. E. Knox, J. B. Cross, 
 V. Bakken, C. Adamo, J. Jaramillo, R. Gomperts, R. E. Stratmann, 
 O. Yazyev, A. J. Austin, R. Cammi, C. Pomelli, J. W. Ochterski, 
 R. L. Martin, K. Morokuma, V. G. Zakrzewski, G. A. Voth, 
 P. Salvador, J. J. Dannenberg, S. Dapprich, A. D. Daniels, 
 O. Farkas, J. B. Foresman, J. V. Ortiz, J. Cioslowski, 
 and D. J. Fox, Gaussian, Inc., Wallingford CT, 2013.
 
 ******************************************
 Gaussian 09:  ES64L-G09RevD.01 24-Apr-2013
                29-Jul-2016 
 ******************************************
 %chk=1.chk
 %mem=15GB
 %nproc=8
 Will use up to    8 processors via shared memory.
 ----------------------------------------------------------------------
 #P b3lyp/gen opt freq scrf(smd,solvent=water) gfinput scf=(xqc,maxcon=
 128,maxcyc=128)
 ----------------------------------------------------------------------
 1/14=-1,18=20,19=15,26=3,38=1/1,3;
 2/9=110,12=2,17=6,18=5,40=1/2;
 3/5=7,11=2,16=1,24=10,25=1,30=1,70=32201,71=1,72=1,74=-5/1,2,3;
 4//1;
 5/5=2,7=128,8=3,13=1,38=5,53=1,85=128/2,8;
 6/7=2,8=2,9=2,10=2,28=1/1;
 7//1,2,3,16;
 1/14=-1,18=20,19=15,26=3/3(2);
 2/9=110/2;
 99//99;
 2/9=110/2;
 3/5=7,6=1,11=2,16=1,25=1,30=1,70=32205,71=1,72=1,74=-5,82=7/1,2,3;
 4/5=5,16=3,69=1/1;
 5/5=2,7=128,8=3,13=1,38=5,53=1,85=128/2,8;
 7//1,2,3,16;
 1/14=-1,18=20,19=15,26=3/3(-5);
 2/9=110/2;
 6/7=2,8=2,9=2,10=2,19=2,28=1/1;
 99/9=1/99;
 Leave Link    1 at Fri Jul 29 15:04:10 2016, MaxMem=  2013265920 cpu:         1.1
 (Enter /public/apps/gaussian//g09/l101.exe)
 ------------------
 ferulic_acid_2.car
 ------------------
 Symbolic Z-matrix:
 Charge =  0 Multiplicity = 1
 C                     4.883     2.864    -0.599 
 O                     6.192     3.058    -0.962 
 C                     6.487     4.256    -1.671 
 C                     3.817     3.73     -0.847 
 C                     2.518     3.398    -0.423 
 C                     1.372     4.296    -0.64 
 C                     1.208     5.049    -1.738 
 C                     0.025     5.913    -1.858 
 O                     0.074     6.591    -3.017 
 C                     2.31      2.2       0.279 
 C                     3.372     1.331     0.532 
 C                     4.642     1.67      0.089 
 O                     5.679     0.812     0.34 
 O                    -0.884     6.037    -1.06 
 H                     6.273     5.139    -1.059 
 H                     5.949     4.293    -2.624 
 H                     7.559     4.257    -1.893 
 H                     3.98      4.673    -1.358 
 H                     0.625     4.31      0.151 
 H                    -0.737     7.142    -3.024 
 H                     1.906     5.053    -2.566 
 H                     1.316     1.93      0.63 
 H                     3.21      0.401     1.069 
 H                     6.454     1.255    -0.059 
 
 NAtoms=     24 NQM=       24 NQMF=       0 NMMI=      0 NMMIF=      0
                NMic=       0 NMicF=      0.
                    Isotopes and Nuclear Properties:
 (Nuclear quadrupole moments (NQMom) in fm**2, nuclear magnetic moments (NMagM)
  in nuclear magnetons)

  Atom         1           2           3           4           5           6           7           8           9          10
 IAtWgt=          12          16          12          12          12          12          12          12          16          12
 AtmWgt=  12.0000000  15.9949146  12.0000000  12.0000000  12.0000000  12.0000000  12.0000000  12.0000000  15.9949146  12.0000000
 NucSpn=           0           0           0           0           0           0           0           0           0           0
 AtZEff=   0.0000000   0.0000000   0.0000000   0.0000000   0.0000000   0.0000000   0.0000000   0.0000000   0.0000000   0.0000000
 NQMom=    0.0000000   0.0000000   0.0000000   0.0000000   0.0000000   0.0000000   0.0000000   0.0000000   0.0000000   0.0000000
 NMagM=    0.0000000   0.0000000   0.0000000   0.0000000   0.0000000   0.0000000   0.0000000   0.0000000   0.0000000   0.0000000
 AtZNuc=   6.0000000   8.0000000   6.0000000   6.0000000   6.0000000   6.0000000   6.0000000   6.0000000   8.0000000   6.0000000

  Atom        11          12          13          14          15          16          17          18          19          20
 IAtWgt=          12          12          16          16           1           1           1           1           1           1
 AtmWgt=  12.0000000  12.0000000  15.9949146  15.9949146   1.0078250   1.0078250   1.0078250   1.0078250   1.0078250   1.0078250
 NucSpn=           0           0           0           0           1           1           1           1           1           1
 AtZEff=   0.0000000   0.0000000   0.0000000   0.0000000   0.0000000   0.0000000   0.0000000   0.0000000   0.0000000   0.0000000
 NQMom=    0.0000000   0.0000000   0.0000000   0.0000000   0.0000000   0.0000000   0.0000000   0.0000000   0.0000000   0.0000000
 NMagM=    0.0000000   0.0000000   0.0000000   0.0000000   2.7928460   2.7928460   2.7928460   2.7928460   2.7928460   2.7928460
 AtZNuc=   6.0000000   6.0000000   8.0000000   8.0000000   1.0000000   1.0000000   1.0000000   1.0000000   1.0000000   1.0000000

  Atom        21          22          23          24
 IAtWgt=           1           1           1           1
 AtmWgt=   1.0078250   1.0078250   1.0078250   1.0078250
 NucSpn=           1           1           1           1
 AtZEff=   0.0000000   0.0000000   0.0000000   0.0000000
 NQMom=    0.0000000   0.0000000   0.0000000   0.0000000
 NMagM=    2.7928460   2.7928460   2.7928460   2.7928460
 AtZNuc=   1.0000000   1.0000000   1.0000000   1.0000000
 Leave Link  101 at Fri Jul 29 15:04:10 2016, MaxMem=  2013265920 cpu:         2.2
 (Enter /public/apps/gaussian//g09/l103.exe)

 GradGradGradGradGradGradGradGradGradGradGradGradGradGradGradGradGradGrad
 Berny optimization.
 Initialization pass.
                           ----------------------------
                           !    Initial Parameters    !
                           ! (Angstroms and Degrees)  !
 --------------------------                            --------------------------
 ! Name  Definition              Value          Derivative Info.                !
 --------------------------------------------------------------------------------
 ! R1    R(1,2)                  1.3722         estimate D2E/DX2                !
 ! R2    R(1,4)                  1.3956         estimate D2E/DX2                !
 ! R3    R(1,12)                 1.3989         estimate D2E/DX2                !
 ! R4    R(2,3)                  1.423          estimate D2E/DX2                !
 ! R5    R(3,15)                 1.0955         estimate D2E/DX2                !
 ! R6    R(3,16)                 1.095          estimate D2E/DX2                !
 ! R7    R(3,17)                 1.0947         estimate D2E/DX2                !
 ! R8    R(4,5)                  1.4062         estimate D2E/DX2                !
 ! R9    R(4,18)                 1.0849         estimate D2E/DX2                !
 ! R10   R(5,6)                  1.472          estimate D2E/DX2                !
 ! R11   R(5,10)                 1.404          estimate D2E/DX2                !
 ! R12   R(6,7)                  1.3415         estimate D2E/DX2                !
 ! R13   R(6,19)                 1.0881         estimate D2E/DX2                !
 ! R14   R(7,8)                  1.4698         estimate D2E/DX2                !
 ! R15   R(7,21)                 1.083          estimate D2E/DX2                !
 ! R16   R(8,9)                  1.3436         estimate D2E/DX2                !
 ! R17   R(8,14)                 1.2159         estimate D2E/DX2                !
 ! R18   R(9,20)                 0.9805         estimate D2E/DX2                !
 ! R19   R(10,11)                1.3954         estimate D2E/DX2                !
 ! R20   R(10,22)                1.0882         estimate D2E/DX2                !
 ! R21   R(11,12)                1.3871         estimate D2E/DX2                !
 ! R22   R(11,23)                1.0861         estimate D2E/DX2                !
 ! R23   R(12,13)                1.3691         estimate D2E/DX2                !
 ! R24   R(13,24)                0.9778         estimate D2E/DX2                !
 ! A1    A(2,1,4)              126.4343         estimate D2E/DX2                !
 ! A2    A(2,1,12)             114.5262         estimate D2E/DX2                !
 ! A3    A(4,1,12)             119.0391         estimate D2E/DX2                !
 ! A4    A(1,2,3)              116.6537         estimate D2E/DX2                !
 ! A5    A(2,3,15)             111.0851         estimate D2E/DX2                !
 ! A6    A(2,3,16)             111.114          estimate D2E/DX2                !
 ! A7    A(2,3,17)             107.7467         estimate D2E/DX2                !
 ! A8    A(15,3,16)            111.2848         estimate D2E/DX2                !
 ! A9    A(15,3,17)            107.6889         estimate D2E/DX2                !
 ! A10   A(16,3,17)            107.7339         estimate D2E/DX2                !
 ! A11   A(1,4,5)              120.3645         estimate D2E/DX2                !
 ! A12   A(1,4,18)             120.5505         estimate D2E/DX2                !
 ! A13   A(5,4,18)             119.0807         estimate D2E/DX2                !
 ! A14   A(4,5,6)              122.0525         estimate D2E/DX2                !
 ! A15   A(4,5,10)             119.2791         estimate D2E/DX2                !
 ! A16   A(6,5,10)             118.614          estimate D2E/DX2                !
 ! A17   A(5,6,7)              123.9371         estimate D2E/DX2                !
 ! A18   A(5,6,19)             115.7961         estimate D2E/DX2                !
 ! A19   A(7,6,19)             120.2574         estimate D2E/DX2                !
 ! A20   A(6,7,8)              119.6821         estimate D2E/DX2                !
 ! A21   A(6,7,21)             123.3044         estimate D2E/DX2                !
 ! A22   A(8,7,21)             117.011          estimate D2E/DX2                !
 ! A23   A(7,8,9)              109.7361         estimate D2E/DX2                !
 ! A24   A(7,8,14)             127.4496         estimate D2E/DX2                !
 ! A25   A(9,8,14)             122.8138         estimate D2E/DX2                !
 ! A26   A(8,9,20)             105.0439         estimate D2E/DX2                !
 ! A27   A(5,10,11)            120.6172         estimate D2E/DX2                !
 ! A28   A(5,10,22)            120.5515         estimate D2E/DX2                !
 ! A29   A(11,10,22)           118.8302         estimate D2E/DX2                !
 ! A30   A(10,11,12)           119.1259         estimate D2E/DX2                !
 ! A31   A(10,11,23)           120.6251         estimate D2E/DX2                !
 ! A32   A(12,11,23)           120.249          estimate D2E/DX2                !
 ! A33   A(1,12,11)            121.5594         estimate D2E/DX2                !
 ! A34   A(1,12,13)            119.6396         estimate D2E/DX2                !
 ! A35   A(11,12,13)           118.8006         estimate D2E/DX2                !
 ! A36   A(12,13,24)           103.9808         estimate D2E/DX2                !
 ! D1    D(4,1,2,3)             -0.5648         estimate D2E/DX2                !
 ! D2    D(12,1,2,3)           179.6804         estimate D2E/DX2                !
 ! D3    D(2,1,4,5)            179.5779         estimate D2E/DX2                !
 ! D4    D(2,1,4,18)            -1.1736         estimate D2E/DX2                !
 ! D5    D(12,1,4,5)            -0.6772         estimate D2E/DX2                !
 ! D6    D(12,1,4,18)          178.5713         estimate D2E/DX2                !
 ! D7    D(2,1,12,11)          179.5811         estimate D2E/DX2                !
 ! D8    D(2,1,12,13)           -0.1664         estimate D2E/DX2                !
 ! D9    D(4,1,12,11)           -0.1933         estimate D2E/DX2                !
 ! D10   D(4,1,12,13)         -179.9408         estimate D2E/DX2                !
 ! D11   D(1,2,3,15)            62.769          estimate D2E/DX2                !
 ! D12   D(1,2,3,16)           -61.6984         estimate D2E/DX2                !
 ! D13   D(1,2,3,17)          -179.5001         estimate D2E/DX2                !
 ! D14   D(1,4,5,6)            178.7028         estimate D2E/DX2                !
 ! D15   D(1,4,5,10)             1.4227         estimate D2E/DX2                !
 ! D16   D(18,4,5,6)            -0.5567         estimate D2E/DX2                !
 ! D17   D(18,4,5,10)         -177.8368         estimate D2E/DX2                !
 ! D18   D(4,5,6,7)             36.8528         estimate D2E/DX2                !
 ! D19   D(4,5,6,19)          -144.2638         estimate D2E/DX2                !
 ! D20   D(10,5,6,7)          -145.8497         estimate D2E/DX2                !
 ! D21   D(10,5,6,19)           33.0337         estimate D2E/DX2                !
 ! D22   D(4,5,10,11)           -1.3195         estimate D2E/DX2                !
 ! D23   D(4,5,10,22)          179.0645         estimate D2E/DX2                !
 ! D24   D(6,5,10,11)         -178.6936         estimate D2E/DX2                !
 ! D25   D(6,5,10,22)            1.6904         estimate D2E/DX2                !
 ! D26   D(5,6,7,8)            179.9291         estimate D2E/DX2                !
 ! D27   D(5,6,7,21)             0.5218         estimate D2E/DX2                !
 ! D28   D(19,6,7,8)             1.093          estimate D2E/DX2                !
 ! D29   D(19,6,7,21)         -178.3143         estimate D2E/DX2                !
 ! D30   D(6,7,8,9)            178.9108         estimate D2E/DX2                !
 ! D31   D(6,7,8,14)            -0.8245         estimate D2E/DX2                !
 ! D32   D(21,7,8,9)            -1.6452         estimate D2E/DX2                !
 ! D33   D(21,7,8,14)          178.6195         estimate D2E/DX2                !
 ! D34   D(7,8,9,20)          -179.7829         estimate D2E/DX2                !
 ! D35   D(14,8,9,20)           -0.0329         estimate D2E/DX2                !
 ! D36   D(5,10,11,12)           0.4684         estimate D2E/DX2                !
 ! D37   D(5,10,11,23)        -179.5736         estimate D2E/DX2                !
 ! D38   D(22,10,11,12)       -179.9091         estimate D2E/DX2                !
 ! D39   D(22,10,11,23)          0.0489         estimate D2E/DX2                !
 ! D40   D(10,11,12,1)           0.2984         estimate D2E/DX2                !
 ! D41   D(10,11,12,13)       -179.952          estimate D2E/DX2                !
 ! D42   D(23,11,12,1)        -179.6598         estimate D2E/DX2                !
 ! D43   D(23,11,12,13)          0.0897         estimate D2E/DX2                !
 ! D44   D(1,12,13,24)          -0.3067         estimate D2E/DX2                !
 ! D45   D(11,12,13,24)        179.9388         estimate D2E/DX2                !
 --------------------------------------------------------------------------------
 Trust Radius=3.00D-01 FncErr=1.00D-07 GrdErr=1.00D-06
 Number of steps in this run=    115 maximum allowed number of steps=    144.
 GradGradGradGradGradGradGradGradGradGradGradGradGradGradGradGradGradGrad

 Leave Link  103 at Fri Jul 29 15:04:11 2016, MaxMem=  2013265920 cpu:         0.0
 (Enter /public/apps/gaussian//g09/l202.exe)
                          Input orientation:                          
 ---------------------------------------------------------------------
 Center     Atomic      Atomic             Coordinates (Angstroms)
 Number     Number       Type             X           Y           Z
 ---------------------------------------------------------------------
      1          6           0        4.883000    2.864000   -0.599000
      2          8           0        6.192000    3.058000   -0.962000
      3          6           0        6.487000    4.256000   -1.671000
      4          6           0        3.817000    3.730000   -0.847000
      5          6           0        2.518000    3.398000   -0.423000
      6          6           0        1.372000    4.296000   -0.640000
      7          6           0        1.208000    5.049000   -1.738000
      8          6           0        0.025000    5.913000   -1.858000
      9          8           0        0.074000    6.591000   -3.017000
     10          6           0        2.310000    2.200000    0.279000
     11          6           0        3.372000    1.331000    0.532000
     12          6           0        4.642000    1.670000    0.089000
     13          8           0        5.679000    0.812000    0.340000
     14          8           0       -0.884000    6.037000   -1.060000
     15          1           0        6.273000    5.139000   -1.059000
     16          1           0        5.949000    4.293000   -2.624000
     17          1           0        7.559000    4.257000   -1.893000
     18          1           0        3.980000    4.673000   -1.358000
     19          1           0        0.625000    4.310000    0.151000
     20          1           0       -0.737000    7.142000   -3.024000
     21          1           0        1.906000    5.053000   -2.566000
     22          1           0        1.316000    1.930000    0.630000
     23          1           0        3.210000    0.401000    1.069000
     24          1           0        6.454000    1.255000   -0.059000
 ---------------------------------------------------------------------
                    Distance matrix (angstroms):
                    1          2          3          4          5
     1  C    0.000000
     2  O    1.372183   0.000000
     3  C    2.379005   1.422993   0.000000
     4  C    1.395642   2.470918   2.843335   0.000000
     5  C    2.430917   3.728860   4.248132   1.406201   0.000000
     6  C    3.792021   4.986856   5.218025   2.518180   1.472008
     7  C    4.424610   5.422777   5.338650   3.056227   2.484175
     8  C    5.872107   6.854614   6.673684   4.490754   3.820929
     9  O    6.547040   7.357652   6.956329   5.186933   4.785104
    10  C    2.798591   4.164873   5.047471   2.424835   1.404020
    11  C    2.431537   3.628631   4.807500   2.802654   2.431837
    12  C    1.398950   2.331018   3.631669   2.408386   2.785589
    13  O    2.392915   2.646297   4.069167   3.659336   4.154694
    14  O    6.598389   7.678139   7.607688   5.240899   4.352435
    15  H    2.705425   2.084834   1.095458   2.839394   4.187553
    16  H    2.697966   2.084830   1.094999   2.831982   4.173390
    17  H    3.282661   2.042805   1.094746   3.921021   5.320758
    18  H    2.159623   2.767306   2.560646   1.084868   2.153438
    19  H    4.558945   5.813584   6.138863   3.394299   2.178226
    20  H    7.467684   8.303128   7.895934   6.092618   5.601586
    21  H    4.186089   4.992258   4.735166   2.890884   2.775972
    22  H    3.886681   5.251878   6.119160   3.417094   2.169939
    23  H    3.412847   4.480729   5.753899   3.888669   3.418616
    24  H    2.312687   2.033436   3.406704   3.701397   4.496336
                    6          7          8          9         10
     6  C    0.000000
     7  C    1.341458   0.000000
     8  C    2.431588   1.469825   0.000000
     9  O    3.549924   2.302078   1.343639   0.000000
    10  C    2.473383   3.660532   4.855344   5.928254   0.000000
    11  C    3.763616   4.864085   6.157047   7.151210   1.395354
    12  C    4.256785   5.152468   6.565862   7.397980   2.399005
    13  O    5.625736   6.500776   7.925851   8.722518   3.644232
    14  O    2.880454   2.410870   1.215920   2.248228   5.168861
    15  H    4.990592   5.111102   6.346257   6.661056   5.112077
    16  H    4.988506   4.881968   6.189098   6.320671   5.103957
    17  H    6.312725   6.402069   7.713930   7.920616   6.041592
    18  H    2.731175   2.823076   4.174880   4.657021   3.403586
    19  H    1.088065   2.110529   2.639259   3.942434   2.703277
    20  H    4.269784   3.133284   1.857590   0.980495   6.679624
    21  H    2.137213   1.082961   2.186098   2.434146   4.049302
    22  H    2.685888   3.917557   4.870433   6.047156   1.088181
    23  H    4.633568   5.787154   7.006690   8.052701   2.161134
    24  H    5.950795   6.688348   8.140357   8.827630   4.263802
                   11         12         13         14         15
    11  C    0.000000
    12  C    1.387109   0.000000
    13  O    2.372441   1.369136   0.000000
    14  O    6.541746   7.136355   8.504916   0.000000
    15  H    5.044596   4.001503   4.586171   7.213117   0.000000
    16  H    5.037332   3.993588   4.579908   7.223401   1.808291
    17  H    5.654473   4.373761   4.515386   8.668710   1.768411
    18  H    3.887252   3.398538   4.547211   5.060415   2.358899
    19  H    4.070087   4.807258   6.149361   2.593479   5.835344
    20  H    7.955925   8.280531   9.620315   2.258302   7.550717
    21  H    5.059649   5.097000   6.377025   3.319698   4.620512
    22  H    2.143721   3.379727   4.513291   4.956163   6.141844
    23  H    1.086054   2.149741   2.606976   7.284090   6.029842
    24  H    3.139073   1.864798   0.977791   8.815655   4.014750
                   16         17         18         19         20
    16  H    0.000000
    17  H    1.768547   0.000000
    18  H    2.371522   3.642598   0.000000
    19  H    6.003823   7.229184   3.696603   0.000000
    20  H    7.278695   8.855846   5.578674   4.467202   0.000000
    21  H    4.114221   5.748300   2.430049   3.094366   3.399873
    22  H    6.134898   7.124290   4.309651   2.524148   6.688159
    23  H    6.023955   6.523495   4.973250   4.775482   8.818874
    24  H    4.007954   3.687355   4.414839   6.584403   9.754921
                   21         22         23         24
    21  H    0.000000
    22  H    4.507288   0.000000
    23  H    6.046052   2.473418   0.000000
    24  H    6.433829   5.227752   3.539101   0.000000
 Stoichiometry    C10H10O4
 Framework group  C1[X(C10H10O4)]
 Deg. of freedom    66
 Full point group                 C1      NOp   1
 Largest Abelian subgroup         C1      NOp   1
 Largest concise Abelian subgroup C1      NOp   1
                         Standard orientation:                         
 ---------------------------------------------------------------------
 Center     Atomic      Atomic             Coordinates (Angstroms)
 Number     Number       Type             X           Y           Z
 ---------------------------------------------------------------------
      1          6           0        2.019081    0.401831    0.043814
      2          8           0        2.876420    1.472881    0.070443
      3          6           0        2.286706    2.758975    0.222465
      4          6           0        0.629269    0.449473    0.162004
      5          6           0       -0.129659   -0.733124    0.108217
      6          6           0       -1.594151   -0.728941    0.256726
      7          6           0       -2.393665    0.231269   -0.231417
      8          6           0       -3.846759    0.140751   -0.029656
      9          8           0       -4.448165    1.211224   -0.575335
     10          6           0        0.528095   -1.965188   -0.035483
     11          6           0        1.917510   -2.019681   -0.151970
     12          6           0        2.645003   -0.839257   -0.114247
     13          8           0        4.007854   -0.900385   -0.230144
     14          8           0       -4.460645   -0.740957    0.539727
     15          1           0        1.766098    2.842807    1.182657
     16          1           0        1.617669    2.987473   -0.613716
     17          1           0        3.093502    3.498911    0.215805
     18          1           0        0.120445    1.396331    0.308621
     19          1           0       -2.019015   -1.580475    0.784236
     20          1           0       -5.404231    1.083150   -0.399532
     21          1           0       -2.026457    1.085555   -0.786537
     22          1           0       -0.037731   -2.894249   -0.064196
     23          1           0        2.425876   -2.972118   -0.270044
     24          1           0        4.291552    0.033865   -0.177545
 ---------------------------------------------------------------------
 Rotational constants (GHZ):      1.3891069      0.3074538      0.2561468
 Leave Link  202 at Fri Jul 29 15:04:11 2016, MaxMem=  2013265920 cpu:         0.0
 (Enter /public/apps/gaussian//g09/l301.exe)
 General basis read from cards:  (5D, 7F)
 Centers:       2      9     13     14
 6-31G(d')
 ****
 Centers:       1      3      4      5      6      7      8     10     11     12
 6-31G(d')
 ****
 Centers:      15     16     17     18     19     20     21     22     23     24
 6-31G(d')
 ****
 Ernie: Thresh=  0.10000D-02 Tol=  0.10000D-05 Strict=F.
 AO basis set in the form of general basis input (Overlap normalization):
      1 0
 S   6 1.00       0.000000000000
      0.3047524880D+04  0.1834737132D-02
      0.4573695180D+03  0.1403732281D-01
      0.1039486850D+03  0.6884262226D-01
      0.2921015530D+02  0.2321844432D+00
      0.9286662960D+01  0.4679413484D+00
      0.3163926960D+01  0.3623119853D+00
 SP   3 1.00       0.000000000000
      0.7868272350D+01 -0.1193324198D+00  0.6899906659D-01
      0.1881288540D+01 -0.1608541517D+00  0.3164239610D+00
      0.5442492580D+00  0.1143456438D+01  0.7443082909D+00
 SP   1 1.00       0.000000000000
      0.1687144782D+00  0.1000000000D+01  0.1000000000D+01
 D   1 1.00       0.000000000000
      0.6260000000D+00  0.1000000000D+01
 ****
      2 0
 S   6 1.00       0.000000000000
      0.5484671660D+04  0.1831074430D-02
      0.8252349460D+03  0.1395017220D-01
      0.1880469580D+03  0.6844507810D-01
      0.5296450000D+02  0.2327143360D+00
      0.1689757040D+02  0.4701928980D+00
      0.5799635340D+01  0.3585208530D+00
 SP   3 1.00       0.000000000000
      0.1553961625D+02 -0.1107775495D+00  0.7087426823D-01
      0.3599933586D+01 -0.1480262627D+00  0.3397528391D+00
      0.1013761750D+01  0.1130767015D+01  0.7271585773D+00
 SP   1 1.00       0.000000000000
      0.2700058226D+00  0.1000000000D+01  0.1000000000D+01
 D   1 1.00       0.000000000000
      0.1292000000D+01  0.1000000000D+01
 ****
      3 0
 S   6 1.00       0.000000000000
      0.3047524880D+04  0.1834737132D-02
      0.4573695180D+03  0.1403732281D-01
      0.1039486850D+03  0.6884262226D-01
      0.2921015530D+02  0.2321844432D+00
      0.9286662960D+01  0.4679413484D+00
      0.3163926960D+01  0.3623119853D+00
 SP   3 1.00       0.000000000000
      0.7868272350D+01 -0.1193324198D+00  0.6899906659D-01
      0.1881288540D+01 -0.1608541517D+00  0.3164239610D+00
      0.5442492580D+00  0.1143456438D+01  0.7443082909D+00
 SP   1 1.00       0.000000000000
      0.1687144782D+00  0.1000000000D+01  0.1000000000D+01
 D   1 1.00       0.000000000000
      0.6260000000D+00  0.1000000000D+01
 ****
      4 0
 S   6 1.00       0.000000000000
      0.3047524880D+04  0.1834737132D-02
      0.4573695180D+03  0.1403732281D-01
      0.1039486850D+03  0.6884262226D-01
      0.2921015530D+02  0.2321844432D+00
      0.9286662960D+01  0.4679413484D+00
      0.3163926960D+01  0.3623119853D+00
 SP   3 1.00       0.000000000000
      0.7868272350D+01 -0.1193324198D+00  0.6899906659D-01
      0.1881288540D+01 -0.1608541517D+00  0.3164239610D+00
      0.5442492580D+00  0.1143456438D+01  0.7443082909D+00
 SP   1 1.00       0.000000000000
      0.1687144782D+00  0.1000000000D+01  0.1000000000D+01
 D   1 1.00       0.000000000000
      0.6260000000D+00  0.1000000000D+01
 ****
      5 0
 S   6 1.00       0.000000000000
      0.3047524880D+04  0.1834737132D-02
      0.4573695180D+03  0.1403732281D-01
      0.1039486850D+03  0.6884262226D-01
      0.2921015530D+02  0.2321844432D+00
      0.9286662960D+01  0.4679413484D+00
      0.3163926960D+01  0.3623119853D+00
 SP   3 1.00       0.000000000000
      0.7868272350D+01 -0.1193324198D+00  0.6899906659D-01
      0.1881288540D+01 -0.1608541517D+00  0.3164239610D+00
      0.5442492580D+00  0.1143456438D+01  0.7443082909D+00
 SP   1 1.00       0.000000000000
      0.1687144782D+00  0.1000000000D+01  0.1000000000D+01
 D   1 1.00       0.000000000000
      0.6260000000D+00  0.1000000000D+01
 ****
      6 0
 S   6 1.00       0.000000000000
      0.3047524880D+04  0.1834737132D-02
      0.4573695180D+03  0.1403732281D-01
      0.1039486850D+03  0.6884262226D-01
      0.2921015530D+02  0.2321844432D+00
      0.9286662960D+01  0.4679413484D+00
      0.3163926960D+01  0.3623119853D+00
 SP   3 1.00       0.000000000000
      0.7868272350D+01 -0.1193324198D+00  0.6899906659D-01
      0.1881288540D+01 -0.1608541517D+00  0.3164239610D+00
      0.5442492580D+00  0.1143456438D+01  0.7443082909D+00
 SP   1 1.00       0.000000000000
      0.1687144782D+00  0.1000000000D+01  0.1000000000D+01
 D   1 1.00       0.000000000000
      0.6260000000D+00  0.1000000000D+01
 ****
      7 0
 S   6 1.00       0.000000000000
      0.3047524880D+04  0.1834737132D-02
      0.4573695180D+03  0.1403732281D-01
      0.1039486850D+03  0.6884262226D-01
      0.2921015530D+02  0.2321844432D+00
      0.9286662960D+01  0.4679413484D+00
      0.3163926960D+01  0.3623119853D+00
 SP   3 1.00       0.000000000000
      0.7868272350D+01 -0.1193324198D+00  0.6899906659D-01
      0.1881288540D+01 -0.1608541517D+00  0.3164239610D+00
      0.5442492580D+00  0.1143456438D+01  0.7443082909D+00
 SP   1 1.00       0.000000000000
      0.1687144782D+00  0.1000000000D+01  0.1000000000D+01
 D   1 1.00       0.000000000000
      0.6260000000D+00  0.1000000000D+01
 ****
      8 0
 S   6 1.00       0.000000000000
      0.3047524880D+04  0.1834737132D-02
      0.4573695180D+03  0.1403732281D-01
      0.1039486850D+03  0.6884262226D-01
      0.2921015530D+02  0.2321844432D+00
      0.9286662960D+01  0.4679413484D+00
      0.3163926960D+01  0.3623119853D+00
 SP   3 1.00       0.000000000000
      0.7868272350D+01 -0.1193324198D+00  0.6899906659D-01
      0.1881288540D+01 -0.1608541517D+00  0.3164239610D+00
      0.5442492580D+00  0.1143456438D+01  0.7443082909D+00
 SP   1 1.00       0.000000000000
      0.1687144782D+00  0.1000000000D+01  0.1000000000D+01
 D   1 1.00       0.000000000000
      0.6260000000D+00  0.1000000000D+01
 ****
      9 0
 S   6 1.00       0.000000000000
      0.5484671660D+04  0.1831074430D-02
      0.8252349460D+03  0.1395017220D-01
      0.1880469580D+03  0.6844507810D-01
      0.5296450000D+02  0.2327143360D+00
      0.1689757040D+02  0.4701928980D+00
      0.5799635340D+01  0.3585208530D+00
 SP   3 1.00       0.000000000000
      0.1553961625D+02 -0.1107775495D+00  0.7087426823D-01
      0.3599933586D+01 -0.1480262627D+00  0.3397528391D+00
      0.1013761750D+01  0.1130767015D+01  0.7271585773D+00
 SP   1 1.00       0.000000000000
      0.2700058226D+00  0.1000000000D+01  0.1000000000D+01
 D   1 1.00       0.000000000000
      0.1292000000D+01  0.1000000000D+01
 ****
     10 0
 S   6 1.00       0.000000000000
      0.3047524880D+04  0.1834737132D-02
      0.4573695180D+03  0.1403732281D-01
      0.1039486850D+03  0.6884262226D-01
      0.2921015530D+02  0.2321844432D+00
      0.9286662960D+01  0.4679413484D+00
      0.3163926960D+01  0.3623119853D+00
 SP   3 1.00       0.000000000000
      0.7868272350D+01 -0.1193324198D+00  0.6899906659D-01
      0.1881288540D+01 -0.1608541517D+00  0.3164239610D+00
      0.5442492580D+00  0.1143456438D+01  0.7443082909D+00
 SP   1 1.00       0.000000000000
      0.1687144782D+00  0.1000000000D+01  0.1000000000D+01
 D   1 1.00       0.000000000000
      0.6260000000D+00  0.1000000000D+01
 ****
     11 0
 S   6 1.00       0.000000000000
      0.3047524880D+04  0.1834737132D-02
      0.4573695180D+03  0.1403732281D-01
      0.1039486850D+03  0.6884262226D-01
      0.2921015530D+02  0.2321844432D+00
      0.9286662960D+01  0.4679413484D+00
      0.3163926960D+01  0.3623119853D+00
 SP   3 1.00       0.000000000000
      0.7868272350D+01 -0.1193324198D+00  0.6899906659D-01
      0.1881288540D+01 -0.1608541517D+00  0.3164239610D+00
      0.5442492580D+00  0.1143456438D+01  0.7443082909D+00
 SP   1 1.00       0.000000000000
      0.1687144782D+00  0.1000000000D+01  0.1000000000D+01
 D   1 1.00       0.000000000000
      0.6260000000D+00  0.1000000000D+01
 ****
     12 0
 S   6 1.00       0.000000000000
      0.3047524880D+04  0.1834737132D-02
      0.4573695180D+03  0.1403732281D-01
      0.1039486850D+03  0.6884262226D-01
      0.2921015530D+02  0.2321844432D+00
      0.9286662960D+01  0.4679413484D+00
      0.3163926960D+01  0.3623119853D+00
 SP   3 1.00       0.000000000000
      0.7868272350D+01 -0.1193324198D+00  0.6899906659D-01
      0.1881288540D+01 -0.1608541517D+00  0.3164239610D+00
      0.5442492580D+00  0.1143456438D+01  0.7443082909D+00
 SP   1 1.00       0.000000000000
      0.1687144782D+00  0.1000000000D+01  0.1000000000D+01
 D   1 1.00       0.000000000000
      0.6260000000D+00  0.1000000000D+01
 ****
     13 0
 S   6 1.00       0.000000000000
      0.5484671660D+04  0.1831074430D-02
      0.8252349460D+03  0.1395017220D-01
      0.1880469580D+03  0.6844507810D-01
      0.5296450000D+02  0.2327143360D+00
      0.1689757040D+02  0.4701928980D+00
      0.5799635340D+01  0.3585208530D+00
 SP   3 1.00       0.000000000000
      0.1553961625D+02 -0.1107775495D+00  0.7087426823D-01
      0.3599933586D+01 -0.1480262627D+00  0.3397528391D+00
      0.1013761750D+01  0.1130767015D+01  0.7271585773D+00
 SP   1 1.00       0.000000000000
      0.2700058226D+00  0.1000000000D+01  0.1000000000D+01
 D   1 1.00       0.000000000000
      0.1292000000D+01  0.1000000000D+01
 ****
     14 0
 S   6 1.00       0.000000000000
      0.5484671660D+04  0.1831074430D-02
      0.8252349460D+03  0.1395017220D-01
      0.1880469580D+03  0.6844507810D-01
      0.5296450000D+02  0.2327143360D+00
      0.1689757040D+02  0.4701928980D+00
      0.5799635340D+01  0.3585208530D+00
 SP   3 1.00       0.000000000000
      0.1553961625D+02 -0.1107775495D+00  0.7087426823D-01
      0.3599933586D+01 -0.1480262627D+00  0.3397528391D+00
      0.1013761750D+01  0.1130767015D+01  0.7271585773D+00
 SP   1 1.00       0.000000000000
      0.2700058226D+00  0.1000000000D+01  0.1000000000D+01
 D   1 1.00       0.000000000000
      0.1292000000D+01  0.1000000000D+01
 ****
     15 0
 S   3 1.00       0.000000000000
      0.1873113696D+02  0.3349460434D-01
      0.2825394365D+01  0.2347269535D+00
      0.6401216923D+00  0.8137573261D+00
 S   1 1.00       0.000000000000
      0.1612777588D+00  0.1000000000D+01
 ****
     16 0
 S   3 1.00       0.000000000000
      0.1873113696D+02  0.3349460434D-01
      0.2825394365D+01  0.2347269535D+00
      0.6401216923D+00  0.8137573261D+00
 S   1 1.00       0.000000000000
      0.1612777588D+00  0.1000000000D+01
 ****
     17 0
 S   3 1.00       0.000000000000
      0.1873113696D+02  0.3349460434D-01
      0.2825394365D+01  0.2347269535D+00
      0.6401216923D+00  0.8137573261D+00
 S   1 1.00       0.000000000000
      0.1612777588D+00  0.1000000000D+01
 ****
     18 0
 S   3 1.00       0.000000000000
      0.1873113696D+02  0.3349460434D-01
      0.2825394365D+01  0.2347269535D+00
      0.6401216923D+00  0.8137573261D+00
 S   1 1.00       0.000000000000
      0.1612777588D+00  0.1000000000D+01
 ****
     19 0
 S   3 1.00       0.000000000000
      0.1873113696D+02  0.3349460434D-01
      0.2825394365D+01  0.2347269535D+00
      0.6401216923D+00  0.8137573261D+00
 S   1 1.00       0.000000000000
      0.1612777588D+00  0.1000000000D+01
 ****
     20 0
 S   3 1.00       0.000000000000
      0.1873113696D+02  0.3349460434D-01
      0.2825394365D+01  0.2347269535D+00
      0.6401216923D+00  0.8137573261D+00
 S   1 1.00       0.000000000000
      0.1612777588D+00  0.1000000000D+01
 ****
     21 0
 S   3 1.00       0.000000000000
      0.1873113696D+02  0.3349460434D-01
      0.2825394365D+01  0.2347269535D+00
      0.6401216923D+00  0.8137573261D+00
 S   1 1.00       0.000000000000
      0.1612777588D+00  0.1000000000D+01
 ****
     22 0
 S   3 1.00       0.000000000000
      0.1873113696D+02  0.3349460434D-01
      0.2825394365D+01  0.2347269535D+00
      0.6401216923D+00  0.8137573261D+00
 S   1 1.00       0.000000000000
      0.1612777588D+00  0.1000000000D+01
 ****
     23 0
 S   3 1.00       0.000000000000
      0.1873113696D+02  0.3349460434D-01
      0.2825394365D+01  0.2347269535D+00
      0.6401216923D+00  0.8137573261D+00
 S   1 1.00       0.000000000000
      0.1612777588D+00  0.1000000000D+01
 ****
     24 0
 S   3 1.00       0.000000000000
      0.1873113696D+02  0.3349460434D-01
      0.2825394365D+01  0.2347269535D+00
      0.6401216923D+00  0.8137573261D+00
 S   1 1.00       0.000000000000
      0.1612777588D+00  0.1000000000D+01
 ****

 There are   230 symmetry adapted cartesian basis functions of A   symmetry.
 There are   216 symmetry adapted basis functions of A   symmetry.
   216 basis functions,   432 primitive gaussians,   230 cartesian basis functions
    51 alpha electrons       51 beta electrons
       nuclear repulsion energy       827.5903440274 Hartrees.
 IExCor=  402 DFT=T Ex+Corr=B3LYP ExCW=0 ScaHFX=  0.200000
 ScaDFX=  0.800000  0.720000  1.000000  0.810000 ScalE2=  1.000000  1.000000
 IRadAn=      0 IRanWt=     -1 IRanGd=            0 ICorTp=0 IEmpDi=  4
 NAtoms=   24 NActive=   24 NUniq=   24 SFac= 1.00D+00 NAtFMM=   60 NAOKFM=F Big=F
 Integral buffers will be    131072 words long.
 Raffenetti 2 integral format.
 Two-electron integral symmetry is turned on.
 ------------------------------------------------------------------------------
 Polarizable Continuum Model (PCM)
 =================================
 Model                : PCM (using non-symmetric T matrix).
 Atomic radii         : SMD-Coulomb.
 Polarization charges : Total charges.
 Charge compensation  : None.
 Solution method      : On-the-fly selection.
 Cavity type          : VdW (van der Waals Surface) (Alpha=1.000).
 Cavity algorithm     : GePol (No added spheres)
                        Default sphere list used, NSphG=   24.
                        Lebedev-Laikov grids with approx.  5.0 points / Ang**2.
                        Smoothing algorithm: Karplus/York (Gamma=1.0000).
                        Polarization charges: spherical gaussians, with
                                              point-specific exponents (IZeta= 3).
                        Self-potential: point-specific (ISelfS= 7).
                        Self-field    : sphere-specific E.n sum rule (ISelfD= 2).
 1st derivatives      : Analytical E(r).r(x)/FMM algorithm (CHGder, D1EAlg=3).
                        Cavity 1st derivative terms included.
 Solvent              : Water, Eps=  78.355300 Eps(inf)=   1.777849
 ------------------------------------------------------------------------------
 GePol: Number of generator spheres                  =      24
 GePol: Total number of spheres                      =      24
 GePol: Number of exposed spheres                    =      24 (100.00%)
 GePol: Number of points                             =    1842
 GePol: Average weight of points                     =       0.12
 GePol: Minimum weight of points                     =   0.21D-09
 GePol: Maximum weight of points                     =    0.21991
 GePol: Number of points with low weight             =      83
 GePol: Fraction of low-weight points (<1% of avg)   =       4.51%
 GePol: Cavity surface area                          =    217.091 Ang**2
 GePol: Cavity volume                                =    185.624 Ang**3
 ------------------------------------------------------------------------------
 Atomic radii for non-electrostatic terms: SMD-CDS.
 ------------------------------------------------------------------------------
 PCM non-electrostatic energy =         0.0116628288 Hartrees.
 Nuclear repulsion after PCM non-electrostatic terms =      827.6020068563 Hartrees.
 Leave Link  301 at Fri Jul 29 15:04:12 2016, MaxMem=  2013265920 cpu:         0.7
 (Enter /public/apps/gaussian//g09/l302.exe)
 NPDir=0 NMtPBC=     1 NCelOv=     1 NCel=       1 NClECP=     1 NCelD=      1
         NCelK=      1 NCelE2=     1 NClLst=     1 CellRange=     0.0.
 One-electron integrals computed using PRISM.
 NBasis=   216 RedAO= T EigKep=  3.55D-04  NBF=   216
 NBsUse=   216 1.00D-06 EigRej= -1.00D+00 NBFU=   216
 Precomputing XC quadrature grid using
 IXCGrd= 4 IRadAn=           0 IRanWt=          -1 IRanGd=           0 AccXCQ= 0.00D+00.
 Generated NRdTot=       0 NPtTot=           0 NUsed=           0 NTot=          32
 NSgBfM=   228   228   228   228   228 MxSgAt=    24 MxSgA2=    24.
 Leave Link  302 at Fri Jul 29 15:04:12 2016, MaxMem=  2013265920 cpu:         2.1
 (Enter /public/apps/gaussian//g09/l303.exe)
 DipDrv:  MaxL=1.
 Leave Link  303 at Fri Jul 29 15:04:12 2016, MaxMem=  2013265920 cpu:         0.5
 (Enter /public/apps/gaussian//g09/l401.exe)
 ExpMin= 1.61D-01 ExpMax= 5.48D+03 ExpMxC= 8.25D+02 IAcc=1 IRadAn=         1 AccDes= 0.00D+00
 Harris functional with IExCor=  402 and IRadAn=       1 diagonalized for initial guess.
 HarFok:  IExCor=  402 AccDes= 0.00D+00 IRadAn=         1 IDoV= 1 UseB2=F ITyADJ=14
 ICtDFT=  3500011 ScaDFX=  1.000000  1.000000  1.000000  1.000000
 FoFCou: FMM=F IPFlag=           0 FMFlag=      100000 FMFlg1=           0
         NFxFlg=           0 DoJE=T BraDBF=F KetDBF=T FulRan=T
         wScrn=  0.000000 ICntrl=     500 IOpCl=  0 I1Cent=   200000004 NGrid=           0
         NMat0=    1 NMatS0=      1 NMatT0=    0 NMatD0=    1 NMtDS0=    0 NMtDT0=    0
 Petite list used in FoFCou.
 Harris En= -687.942341913316    
 JPrj=0 DoOrth=F DoCkMO=F.
 Leave Link  401 at Fri Jul 29 15:04:14 2016, MaxMem=  2013265920 cpu:         8.1
 (Enter /public/apps/gaussian//g09/l502.exe)
 Closed shell SCF:
 Using DIIS extrapolation, IDIIS=  1040.
 Integral symmetry usage will be decided dynamically.
 Keep R1 ints in memory in canonical form, NReq=281656117.
 IVT=      180810 IEndB=      180810 NGot=  2013265920 MDV=  1738450345
 LenX=  1738450345 LenY=  1738397004
 Requested convergence on RMS density matrix=1.00D-08 within 128 cycles.
 Requested convergence on MAX density matrix=1.00D-06.
 Requested convergence on             energy=1.00D-06.
 No special actions if energy rises.
 FoFCou: FMM=F IPFlag=           0 FMFlag=           0 FMFlg1=           0
         NFxFlg=           0 DoJE=F BraDBF=F KetDBF=F FulRan=T
         wScrn=  0.000000 ICntrl=     600 IOpCl=  0 I1Cent=           0 NGrid=           0
         NMat0=    1 NMatS0=  23436 NMatT0=    0 NMatD0=    1 NMtDS0=    0 NMtDT0=    0
 Symmetry not used in FoFCou.

 Cycle   1  Pass 1  IDiag  1:
 Inv3:  Mode=1 IEnd=    10178892.
 Iteration    1 A*A^-1 deviation from unit magnitude is 5.55D-15 for    890.
 Iteration    1 A*A^-1 deviation from orthogonality  is 4.38D-15 for    842    181.
 Iteration    1 A^-1*A deviation from unit magnitude is 6.00D-15 for    222.
 Iteration    1 A^-1*A deviation from orthogonality  is 4.28D-10 for   1049   1048.
 Iteration    2 A*A^-1 deviation from unit magnitude is 8.88D-15 for    205.
 Iteration    2 A*A^-1 deviation from orthogonality  is 1.06D-14 for   1639    661.
 Iteration    2 A^-1*A deviation from unit magnitude is 1.33D-15 for    188.
 Iteration    2 A^-1*A deviation from orthogonality  is 4.21D-16 for   1811   1166.
 E= -687.666014803452    
 DIIS: error= 2.31D-02 at cycle   1 NSaved=   1.
 NSaved= 1 IEnMin= 1 EnMin= -687.666014803452     IErMin= 1 ErrMin= 2.31D-02
 ErrMax= 2.31D-02  0.00D+00 EMaxC= 1.00D-01 BMatC= 3.11D-01 BMatP= 3.11D-01
 IDIUse=3 WtCom= 7.69D-01 WtEn= 2.31D-01
 Coeff-Com:  0.100D+01
 Coeff-En:   0.100D+01
 Coeff:      0.100D+01
 Gap=     0.164 Goal=   None    Shift=    0.000
 GapD=    0.164 DampG=1.000 DampE=0.500 DampFc=0.5000 IDamp=-1.
 Damping current iteration by 5.00D-01
 RMSDP=5.16D-03 MaxDP=1.60D-01              OVMax= 1.77D-01

 Cycle   2  Pass 1  IDiag  1:
 E= -687.790240402002     Delta-E=       -0.124225598550 Rises=F Damp=T
 DIIS: error= 7.43D-03 at cycle   2 NSaved=   2.
 NSaved= 2 IEnMin= 2 EnMin= -687.790240402002     IErMin= 2 ErrMin= 7.43D-03
 ErrMax= 7.43D-03  0.00D+00 EMaxC= 1.00D-01 BMatC= 2.15D-02 BMatP= 3.11D-01
 IDIUse=3 WtCom= 9.26D-01 WtEn= 7.43D-02
 Coeff-Com:  0.980D-01 0.902D+00
 Coeff-En:   0.132D+00 0.868D+00
 Coeff:      0.101D+00 0.899D+00
 Gap=     0.157 Goal=   None    Shift=    0.000
 RMSDP=1.37D-03 MaxDP=4.03D-02 DE=-1.24D-01 OVMax= 1.52D-01

 Cycle   3  Pass 1  IDiag  1:
 E= -687.936739121637     Delta-E=       -0.146498719635 Rises=F Damp=F
 DIIS: error= 9.11D-03 at cycle   3 NSaved=   3.
 NSaved= 3 IEnMin= 3 EnMin= -687.936739121637     IErMin= 2 ErrMin= 7.43D-03
 ErrMax= 9.11D-03  0.00D+00 EMaxC= 1.00D-01 BMatC= 2.19D-02 BMatP= 2.15D-02
 IDIUse=3 WtCom= 9.09D-01 WtEn= 9.11D-02
 Coeff-Com:  0.230D-02 0.502D+00 0.495D+00
 Coeff-En:   0.000D+00 0.000D+00 0.100D+01
 Coeff:      0.209D-02 0.457D+00 0.541D+00
 Gap=     0.155 Goal=   None    Shift=    0.000
 RMSDP=7.72D-04 MaxDP=3.51D-02 DE=-1.46D-01 OVMax= 5.02D-02

 Cycle   4  Pass 1  IDiag  1:
 E= -687.953075994285     Delta-E=       -0.016336872648 Rises=F Damp=F
 DIIS: error= 4.52D-03 at cycle   4 NSaved=   4.
 NSaved= 4 IEnMin= 4 EnMin= -687.953075994285     IErMin= 4 ErrMin= 4.52D-03
 ErrMax= 4.52D-03  0.00D+00 EMaxC= 1.00D-01 BMatC= 3.15D-03 BMatP= 2.15D-02
 IDIUse=3 WtCom= 9.55D-01 WtEn= 4.52D-02
 Coeff-Com: -0.425D-02 0.130D+00 0.303D+00 0.572D+00
 Coeff-En:   0.000D+00 0.000D+00 0.105D+00 0.895D+00
 Coeff:     -0.406D-02 0.124D+00 0.294D+00 0.586D+00
 Gap=     0.154 Goal=   None    Shift=    0.000
 RMSDP=2.48D-04 MaxDP=1.17D-02 DE=-1.63D-02 OVMax= 2.20D-02

 Cycle   5  Pass 1  IDiag  1:
 E= -687.955274924339     Delta-E=       -0.002198930054 Rises=F Damp=F
 DIIS: error= 1.61D-03 at cycle   5 NSaved=   5.
 NSaved= 5 IEnMin= 5 EnMin= -687.955274924339     IErMin= 5 ErrMin= 1.61D-03
 ErrMax= 1.61D-03  0.00D+00 EMaxC= 1.00D-01 BMatC= 3.72D-04 BMatP= 3.15D-03
 IDIUse=3 WtCom= 9.84D-01 WtEn= 1.61D-02
 Coeff-Com: -0.204D-02 0.185D-01 0.118D+00 0.357D+00 0.509D+00
 Coeff-En:   0.000D+00 0.000D+00 0.000D+00 0.591D-01 0.941D+00
 Coeff:     -0.200D-02 0.182D-01 0.116D+00 0.352D+00 0.516D+00
 Gap=     0.154 Goal=   None    Shift=    0.000
 RMSDP=7.80D-05 MaxDP=3.72D-03 DE=-2.20D-03 OVMax= 6.12D-03

 Cycle   6  Pass 1  IDiag  1:
 E= -687.955569845046     Delta-E=       -0.000294920707 Rises=F Damp=F
 DIIS: error= 1.60D-04 at cycle   6 NSaved=   6.
 NSaved= 6 IEnMin= 6 EnMin= -687.955569845046     IErMin= 6 ErrMin= 1.60D-04
 ErrMax= 1.60D-04  0.00D+00 EMaxC= 1.00D-01 BMatC= 8.86D-06 BMatP= 3.72D-04
 IDIUse=3 WtCom= 9.98D-01 WtEn= 1.60D-03
 Coeff-Com: -0.711D-03 0.292D-03 0.297D-01 0.108D+00 0.219D+00 0.644D+00
 Coeff-En:   0.000D+00 0.000D+00 0.000D+00 0.000D+00 0.000D+00 0.100D+01
 Coeff:     -0.710D-03 0.291D-03 0.297D-01 0.107D+00 0.218D+00 0.645D+00
 Gap=     0.154 Goal=   None    Shift=    0.000
 RMSDP=1.47D-05 MaxDP=4.52D-04 DE=-2.95D-04 OVMax= 9.77D-04

 Cycle   7  Pass 1  IDiag  1:
 E= -687.955576492984     Delta-E=       -0.000006647938 Rises=F Damp=F
 DIIS: error= 3.57D-05 at cycle   7 NSaved=   7.
 NSaved= 7 IEnMin= 7 EnMin= -687.955576492984     IErMin= 7 ErrMin= 3.57D-05
 ErrMax= 3.57D-05  0.00D+00 EMaxC= 1.00D-01 BMatC= 1.21D-06 BMatP= 8.86D-06
 IDIUse=1 WtCom= 1.00D+00 WtEn= 0.00D+00
 Coeff-Com: -0.270D-03-0.110D-02 0.848D-02 0.348D-01 0.871D-01 0.354D+00
 Coeff-Com:  0.517D+00
 Coeff:     -0.270D-03-0.110D-02 0.848D-02 0.348D-01 0.871D-01 0.354D+00
 Coeff:      0.517D+00
 Gap=     0.154 Goal=   None    Shift=    0.000
 RMSDP=5.22D-06 MaxDP=1.68D-04 DE=-6.65D-06 OVMax= 3.25D-04

 Cycle   8  Pass 1  IDiag  1:
 E= -687.955577612620     Delta-E=       -0.000001119636 Rises=F Damp=F
 DIIS: error= 1.08D-05 at cycle   8 NSaved=   8.
 NSaved= 8 IEnMin= 8 EnMin= -687.955577612620     IErMin= 8 ErrMin= 1.08D-05
 ErrMax= 1.08D-05  0.00D+00 EMaxC= 1.00D-01 BMatC= 6.96D-08 BMatP= 1.21D-06
 IDIUse=1 WtCom= 1.00D+00 WtEn= 0.00D+00
 Coeff-Com: -0.766D-04-0.559D-03 0.203D-02 0.905D-02 0.273D-01 0.126D+00
 Coeff-Com:  0.253D+00 0.583D+00
 Coeff:     -0.766D-04-0.559D-03 0.203D-02 0.905D-02 0.273D-01 0.126D+00
 Coeff:      0.253D+00 0.583D+00
 Gap=     0.154 Goal=   None    Shift=    0.000
 RMSDP=1.55D-06 MaxDP=5.33D-05 DE=-1.12D-06 OVMax= 1.20D-04

 Cycle   9  Pass 1  IDiag  1:
 E= -687.955577674306     Delta-E=       -0.000000061686 Rises=F Damp=F
 DIIS: error= 3.48D-06 at cycle   9 NSaved=   9.
 NSaved= 9 IEnMin= 9 EnMin= -687.955577674306     IErMin= 9 ErrMin= 3.48D-06
 ErrMax= 3.48D-06  0.00D+00 EMaxC= 1.00D-01 BMatC= 9.14D-09 BMatP= 6.96D-08
 IDIUse=1 WtCom= 1.00D+00 WtEn= 0.00D+00
 Coeff-Com: -0.297D-05-0.133D-03-0.235D-03-0.790D-03 0.765D-03 0.101D-01
 Coeff-Com:  0.473D-01 0.294D+00 0.649D+00
 Coeff:     -0.297D-05-0.133D-03-0.235D-03-0.790D-03 0.765D-03 0.101D-01
 Coeff:      0.473D-01 0.294D+00 0.649D+00
 Gap=     0.154 Goal=   None    Shift=    0.000
 RMSDP=5.14D-07 MaxDP=1.69D-05 DE=-6.17D-08 OVMax= 3.60D-05

 Cycle  10  Pass 1  IDiag  1:
 E= -687.955577683221     Delta-E=       -0.000000008915 Rises=F Damp=F
 DIIS: error= 8.81D-07 at cycle  10 NSaved=  10.
 NSaved=10 IEnMin=10 EnMin= -687.955577683221     IErMin=10 ErrMin= 8.81D-07
 ErrMax= 8.81D-07  0.00D+00 EMaxC= 1.00D-01 BMatC= 6.79D-10 BMatP= 9.14D-09
 IDIUse=1 WtCom= 1.00D+00 WtEn= 0.00D+00
 Coeff-Com:  0.340D-05-0.208D-04-0.212D-03-0.902D-03-0.127D-02-0.294D-02
 Coeff-Com:  0.613D-02 0.101D+00 0.303D+00 0.596D+00
 Coeff:      0.340D-05-0.208D-04-0.212D-03-0.902D-03-0.127D-02-0.294D-02
 Coeff:      0.613D-02 0.101D+00 0.303D+00 0.596D+00
 Gap=     0.154 Goal=   None    Shift=    0.000
 RMSDP=1.57D-07 MaxDP=4.87D-06 DE=-8.92D-09 OVMax= 1.55D-05

 Cycle  11  Pass 1  IDiag  1:
 E= -687.955577683852     Delta-E=       -0.000000000631 Rises=F Damp=F
 DIIS: error= 3.40D-07 at cycle  11 NSaved=  11.
 NSaved=11 IEnMin=11 EnMin= -687.955577683852     IErMin=11 ErrMin= 3.40D-07
 ErrMax= 3.40D-07  0.00D+00 EMaxC= 1.00D-01 BMatC= 9.96D-11 BMatP= 6.79D-10
 IDIUse=1 WtCom= 1.00D+00 WtEn= 0.00D+00
 Coeff-Com:  0.209D-05 0.848D-05-0.786D-04-0.374D-03-0.826D-03-0.306D-02
 Coeff-Com: -0.393D-02 0.878D-02 0.549D-01 0.307D+00 0.637D+00
 Coeff:      0.209D-05 0.848D-05-0.786D-04-0.374D-03-0.826D-03-0.306D-02
 Coeff:     -0.393D-02 0.878D-02 0.549D-01 0.307D+00 0.637D+00
 Gap=     0.154 Goal=   None    Shift=    0.000
 RMSDP=5.48D-08 MaxDP=1.61D-06 DE=-6.31D-10 OVMax= 5.19D-06

 Cycle  12  Pass 1  IDiag  1:
 E= -687.955577683976     Delta-E=       -0.000000000124 Rises=F Damp=F
 DIIS: error= 1.07D-07 at cycle  12 NSaved=  12.
 NSaved=12 IEnMin=12 EnMin= -687.955577683976     IErMin=12 ErrMin= 1.07D-07
 ErrMax= 1.07D-07  0.00D+00 EMaxC= 1.00D-01 BMatC= 5.40D-12 BMatP= 9.96D-11
 IDIUse=1 WtCom= 1.00D+00 WtEn= 0.00D+00
 Coeff-Com:  0.787D-06 0.453D-05-0.179D-04-0.938D-04-0.274D-03-0.110D-02
 Coeff-Com: -0.222D-02-0.395D-02-0.964D-03 0.938D-01 0.272D+00 0.643D+00
 Coeff:      0.787D-06 0.453D-05-0.179D-04-0.938D-04-0.274D-03-0.110D-02
 Coeff:     -0.222D-02-0.395D-02-0.964D-03 0.938D-01 0.272D+00 0.643D+00
 Gap=     0.154 Goal=   None    Shift=    0.000
 RMSDP=1.53D-08 MaxDP=4.04D-07 DE=-1.24D-10 OVMax= 1.37D-06

 Cycle  13  Pass 1  IDiag  1:
 E= -687.955577683984     Delta-E=       -0.000000000008 Rises=F Damp=F
 DIIS: error= 3.57D-08 at cycle  13 NSaved=  13.
 NSaved=13 IEnMin=13 EnMin= -687.955577683984     IErMin=13 ErrMin= 3.57D-08
 ErrMax= 3.57D-08  0.00D+00 EMaxC= 1.00D-01 BMatC= 8.74D-13 BMatP= 5.40D-12
 IDIUse=1 WtCom= 1.00D+00 WtEn= 0.00D+00
 Coeff-Com:  0.141D-06 0.671D-06 0.373D-05 0.122D-04-0.658D-05-0.343D-04
 Coeff-Com: -0.402D-03-0.285D-02-0.836D-02 0.556D-03 0.320D-01 0.315D+00
 Coeff-Com:  0.664D+00
 Coeff:      0.141D-06 0.671D-06 0.373D-05 0.122D-04-0.658D-05-0.343D-04
 Coeff:     -0.402D-03-0.285D-02-0.836D-02 0.556D-03 0.320D-01 0.315D+00
 Coeff:      0.664D+00
 Gap=     0.154 Goal=   None    Shift=    0.000
 RMSDP=5.67D-09 MaxDP=1.42D-07 DE=-8.41D-12 OVMax= 5.59D-07

 Error on total polarization charges =  0.03931
 SCF Done:  E(RB3LYP) =  -687.955577684     A.U. after   13 cycles
            NFock= 13  Conv=0.57D-08     -V/T= 2.0062
 KE= 6.837453329543D+02 PE=-3.263352998519D+03 EE= 1.064050081024D+03
 SMD-CDS (non-electrostatic) energy       (kcal/mol) =       7.32
 (included in total energy above)
 Leave Link  502 at Fri Jul 29 15:04:41 2016, MaxMem=  2013265920 cpu:       169.7
 (Enter /public/apps/gaussian//g09/l508.exe)
 QCSCF skips out because SCF is already converged.
 Leave Link  508 at Fri Jul 29 15:04:41 2016, MaxMem=  2013265920 cpu:         0.0
 (Enter /public/apps/gaussian//g09/l601.exe)
 Copying SCF densities to generalized density rwf, IOpCl= 0 IROHF=0.

 **********************************************************************

            Population analysis using the SCF density.

 **********************************************************************

 Orbital symmetries:
       Occupied  (A) (A) (A) (A) (A) (A) (A) (A) (A) (A) (A) (A)
                 (A) (A) (A) (A) (A) (A) (A) (A) (A) (A) (A) (A)
                 (A) (A) (A) (A) (A) (A) (A) (A) (A) (A) (A) (A)
                 (A) (A) (A) (A) (A) (A) (A) (A) (A) (A) (A) (A)
                 (A) (A) (A)
       Virtual   (A) (A) (A) (A) (A) (A) (A) (A) (A) (A) (A) (A)
                 (A) (A) (A) (A) (A) (A) (A) (A) (A) (A) (A) (A)
                 (A) (A) (A) (A) (A) (A) (A) (A) (A) (A) (A) (A)
                 (A) (A) (A) (A) (A) (A) (A) (A) (A) (A) (A) (A)
                 (A) (A) (A) (A) (A) (A) (A) (A) (A) (A) (A) (A)
                 (A) (A) (A) (A) (A) (A) (A) (A) (A) (A) (A) (A)
                 (A) (A) (A) (A) (A) (A) (A) (A) (A) (A) (A) (A)
                 (A) (A) (A) (A) (A) (A) (A) (A) (A) (A) (A) (A)
                 (A) (A) (A) (A) (A) (A) (A) (A) (A) (A) (A) (A)
                 (A) (A) (A) (A) (A) (A) (A) (A) (A) (A) (A) (A)
                 (A) (A) (A) (A) (A) (A) (A) (A) (A) (A) (A) (A)
                 (A) (A) (A) (A) (A) (A) (A) (A) (A) (A) (A) (A)
                 (A) (A) (A) (A) (A) (A) (A) (A) (A) (A) (A) (A)
                 (A) (A) (A) (A) (A) (A) (A) (A) (A)
 The electronic state is 1-A.
 Alpha  occ. eigenvalues --  -19.18555 -19.18475 -19.17183 -19.13431 -10.31517
 Alpha  occ. eigenvalues --  -10.24649 -10.24558 -10.22188 -10.20392 -10.19473
 Alpha  occ. eigenvalues --  -10.18837 -10.18623 -10.18419 -10.18222  -1.10520
 Alpha  occ. eigenvalues --   -1.08093  -1.05013  -1.01329  -0.85963  -0.80246
 Alpha  occ. eigenvalues --   -0.75575  -0.74271  -0.70034  -0.66216  -0.61105
 Alpha  occ. eigenvalues --   -0.60074  -0.55760  -0.53880  -0.52777  -0.49595
 Alpha  occ. eigenvalues --   -0.48814  -0.48334  -0.46974  -0.44952  -0.44689
 Alpha  occ. eigenvalues --   -0.44070  -0.42458  -0.41302  -0.40932  -0.39593
 Alpha  occ. eigenvalues --   -0.39244  -0.36944  -0.35216  -0.34654  -0.33831
 Alpha  occ. eigenvalues --   -0.33040  -0.32086  -0.28356  -0.28070  -0.24090
 Alpha  occ. eigenvalues --   -0.20882
 Alpha virt. eigenvalues --   -0.05433   0.00250   0.02613   0.08228   0.09581
 Alpha virt. eigenvalues --    0.10643   0.11624   0.12427   0.14144   0.16108
 Alpha virt. eigenvalues --    0.16258   0.17487   0.17820   0.18327   0.19087
 Alpha virt. eigenvalues --    0.20088   0.23429   0.25637   0.27022   0.28167
 Alpha virt. eigenvalues --    0.30937   0.32645   0.33138   0.35133   0.37636
 Alpha virt. eigenvalues --    0.40568   0.43153   0.48178   0.50499   0.51215
 Alpha virt. eigenvalues --    0.52202   0.52592   0.53586   0.55506   0.56707
 Alpha virt. eigenvalues --    0.56861   0.57436   0.58090   0.59746   0.60326
 Alpha virt. eigenvalues --    0.61999   0.62123   0.63046   0.63544   0.64799
 Alpha virt. eigenvalues --    0.66460   0.67401   0.69294   0.72106   0.72831
 Alpha virt. eigenvalues --    0.75422   0.75675   0.78388   0.80128   0.81106
 Alpha virt. eigenvalues --    0.82924   0.83587   0.84123   0.85068   0.86165
 Alpha virt. eigenvalues --    0.87140   0.87581   0.89687   0.90049   0.90960
 Alpha virt. eigenvalues --    0.92835   0.93235   0.94364   0.94715   0.96867
 Alpha virt. eigenvalues --    0.97646   0.98768   0.99944   1.01384   1.02389
 Alpha virt. eigenvalues --    1.03235   1.04698   1.05354   1.06488   1.08772
 Alpha virt. eigenvalues --    1.11354   1.12892   1.15090   1.15932   1.19970
 Alpha virt. eigenvalues --    1.20673   1.21139   1.22451   1.23044   1.25017
 Alpha virt. eigenvalues --    1.26132   1.28052   1.30803   1.32645   1.34776
 Alpha virt. eigenvalues --    1.35812   1.38228   1.39453   1.44793   1.47631
 Alpha virt. eigenvalues --    1.52671   1.57468   1.60133   1.65558   1.66687
 Alpha virt. eigenvalues --    1.67906   1.70624   1.72742   1.74408   1.76461
 Alpha virt. eigenvalues --    1.77280   1.78810   1.79969   1.83699   1.84678
 Alpha virt. eigenvalues --    1.85892   1.87570   1.89110   1.90501   1.91715
 Alpha virt. eigenvalues --    1.92488   1.94455   1.96380   1.97657   1.99776
 Alpha virt. eigenvalues --    2.02041   2.02584   2.03296   2.05343   2.09497
 Alpha virt. eigenvalues --    2.15454   2.17421   2.23969   2.29949   2.32014
 Alpha virt. eigenvalues --    2.34290   2.37197   2.38475   2.40423   2.47735
 Alpha virt. eigenvalues --    2.51938   2.55679   2.67156   2.74653   2.79112
 Alpha virt. eigenvalues --    2.81710   2.83124   2.88877   2.97343   3.05368
 Alpha virt. eigenvalues --    3.07389   3.10091   3.12180   3.12702   3.14256
 Alpha virt. eigenvalues --    3.20242   3.24546   3.31478   3.31723   3.41360
 Alpha virt. eigenvalues --    3.46327   3.49418   3.66621   3.69254   3.70283
          Condensed to atoms (all electrons):
               1          2          3          4          5          6
     1  C    4.844585   0.304720  -0.063383   0.379879   0.025180   0.005650
     2  O    0.304720   8.019492   0.280645  -0.068595   0.002978  -0.000038
     3  C   -0.063383   0.280645   4.988030  -0.007368   0.000261  -0.000015
     4  C    0.379879  -0.068595  -0.007368   5.288457   0.477580  -0.055163
     5  C    0.025180   0.002978   0.000261   0.477580   4.593810   0.388549
     6  C    0.005650  -0.000038  -0.000015  -0.055163   0.388549   5.038961
     7  C    0.000246   0.000000  -0.000008  -0.010765  -0.025586   0.538260
     8  C   -0.000003   0.000000   0.000000   0.000254   0.003971  -0.005242
     9  O    0.000000   0.000000   0.000000  -0.000004  -0.000007   0.003480
    10  C   -0.051880   0.000119   0.000023  -0.030192   0.512754  -0.050225
    11  C   -0.017267   0.003034  -0.000110  -0.054782  -0.000085   0.006114
    12  C    0.419203  -0.051346   0.004619  -0.004285  -0.039024   0.000340
    13  O   -0.075091  -0.010441   0.000246   0.006277  -0.000258  -0.000001
    14  O    0.000000   0.000000   0.000000   0.000000   0.000820   0.007340
    15  H   -0.003732  -0.033849   0.373891   0.003358  -0.000169  -0.000002
    16  H   -0.003955  -0.033921   0.373325   0.004536  -0.000082  -0.000001
    17  H    0.003124  -0.025107   0.380313   0.000331   0.000007   0.000000
    18  H   -0.043081  -0.006176   0.006006   0.354408  -0.032962  -0.010029
    19  H   -0.000096   0.000000   0.000000   0.004597  -0.028049   0.353419
    20  H    0.000000   0.000000   0.000000   0.000000  -0.000003  -0.000414
    21  H   -0.000017   0.000000  -0.000004   0.003120  -0.005386  -0.043055
    22  H    0.000190   0.000002   0.000000   0.006097  -0.042957  -0.008966
    23  H    0.007248  -0.000038   0.000003  -0.000200   0.003659  -0.000146
    24  H   -0.008769   0.029862  -0.001261   0.002021  -0.000154   0.000000
               7          8          9         10         11         12
     1  C    0.000246  -0.000003   0.000000  -0.051880  -0.017267   0.419203
     2  O    0.000000   0.000000   0.000000   0.000119   0.003034  -0.051346
     3  C   -0.000008   0.000000   0.000000   0.000023  -0.000110   0.004619
     4  C   -0.010765   0.000254  -0.000004  -0.030192  -0.054782  -0.004285
     5  C   -0.025586   0.003971  -0.000007   0.512754  -0.000085  -0.039024
     6  C    0.538260  -0.005242   0.003480  -0.050225   0.006114   0.000340
     7  C    5.186987   0.348577  -0.074448   0.004408  -0.000203   0.000035
     8  C    0.348577   4.380585   0.330051  -0.000229   0.000002   0.000000
     9  O   -0.074448   0.330051   8.091285   0.000000   0.000000   0.000000
    10  C    0.004408  -0.000229   0.000000   5.019283   0.504877  -0.004201
    11  C   -0.000203   0.000002   0.000000   0.504877   4.930703   0.553657
    12  C    0.000035   0.000000   0.000000  -0.004201   0.553657   4.681262
    13  O    0.000000   0.000000   0.000000   0.003124  -0.054559   0.329009
    14  O   -0.097396   0.645678  -0.085920  -0.000009   0.000000   0.000000
    15  H   -0.000001   0.000000   0.000000   0.000000  -0.000010   0.000035
    16  H   -0.000007   0.000000   0.000000  -0.000004  -0.000008   0.000026
    17  H    0.000000   0.000000   0.000000   0.000000   0.000005  -0.000117
    18  H    0.006008  -0.000099   0.000000   0.005729   0.000354   0.002576
    19  H   -0.055809  -0.007128   0.000297  -0.006920   0.000071   0.000007
    20  H    0.010949  -0.029406   0.239685   0.000000   0.000000   0.000000
    21  H    0.353714  -0.028304   0.002302   0.000168  -0.000002  -0.000004
    22  H    0.000250  -0.000011   0.000000   0.366852  -0.045743   0.004644
    23  H    0.000001   0.000000   0.000000  -0.040904   0.357810  -0.040259
    24  H    0.000000   0.000000   0.000000  -0.000013   0.003966  -0.057491
              13         14         15         16         17         18
     1  C   -0.075091   0.000000  -0.003732  -0.003955   0.003124  -0.043081
     2  O   -0.010441   0.000000  -0.033849  -0.033921  -0.025107  -0.006176
     3  C    0.000246   0.000000   0.373891   0.373325   0.380313   0.006006
     4  C    0.006277   0.000000   0.003358   0.004536   0.000331   0.354408
     5  C   -0.000258   0.000820  -0.000169  -0.000082   0.000007  -0.032962
     6  C   -0.000001   0.007340  -0.000002  -0.000001   0.000000  -0.010029
     7  C    0.000000  -0.097396  -0.000001  -0.000007   0.000000   0.006008
     8  C    0.000000   0.645678   0.000000   0.000000   0.000000  -0.000099
     9  O    0.000000  -0.085920   0.000000   0.000000   0.000000   0.000000
    10  C    0.003124  -0.000009   0.000000  -0.000004   0.000000   0.005729
    11  C   -0.054559   0.000000  -0.000010  -0.000008   0.000005   0.000354
    12  C    0.329009   0.000000   0.000035   0.000026  -0.000117   0.002576
    13  O    8.128853   0.000000  -0.000019  -0.000019   0.000010  -0.000037
    14  O    0.000000   7.938044   0.000000   0.000000   0.000000   0.000002
    15  H   -0.000019   0.000000   0.531673  -0.037675  -0.029027   0.002019
    16  H   -0.000019   0.000000  -0.037675   0.532124  -0.028678   0.001196
    17  H    0.000010   0.000000  -0.029027  -0.028678   0.497238  -0.000145
    18  H   -0.000037   0.000002   0.002019   0.001196  -0.000145   0.526621
    19  H    0.000000   0.012116   0.000000   0.000000   0.000000   0.000073
    20  H    0.000000   0.010029   0.000000   0.000000   0.000000   0.000000
    21  H    0.000000   0.002668  -0.000012   0.000048   0.000000   0.002393
    22  H   -0.000046   0.000001   0.000000   0.000000   0.000000  -0.000135
    23  H   -0.000523   0.000000   0.000000   0.000000   0.000000   0.000014
    24  H    0.261796   0.000000   0.000116   0.000115  -0.000151  -0.000003
              19         20         21         22         23         24
     1  C   -0.000096   0.000000  -0.000017   0.000190   0.007248  -0.008769
     2  O    0.000000   0.000000   0.000000   0.000002  -0.000038   0.029862
     3  C    0.000000   0.000000  -0.000004   0.000000   0.000003  -0.001261
     4  C    0.004597   0.000000   0.003120   0.006097  -0.000200   0.002021
     5  C   -0.028049  -0.000003  -0.005386  -0.042957   0.003659  -0.000154
     6  C    0.353419  -0.000414  -0.043055  -0.008966  -0.000146   0.000000
     7  C   -0.055809   0.010949   0.353714   0.000250   0.000001   0.000000
     8  C   -0.007128  -0.029406  -0.028304  -0.000011   0.000000   0.000000
     9  O    0.000297   0.239685   0.002302   0.000000   0.000000   0.000000
    10  C   -0.006920   0.000000   0.000168   0.366852  -0.040904  -0.000013
    11  C    0.000071   0.000000  -0.000002  -0.045743   0.357810   0.003966
    12  C    0.000007   0.000000  -0.000004   0.004644  -0.040259  -0.057491
    13  O    0.000000   0.000000   0.000000  -0.000046  -0.000523   0.261796
    14  O    0.012116   0.010029   0.002668   0.000001   0.000000   0.000000
    15  H    0.000000   0.000000  -0.000012   0.000000   0.000000   0.000116
    16  H    0.000000   0.000000   0.000048   0.000000   0.000000   0.000115
    17  H    0.000000   0.000000   0.000000   0.000000   0.000000  -0.000151
    18  H    0.000073   0.000000   0.002393  -0.000135   0.000014  -0.000003
    19  H    0.532119  -0.000026   0.004762   0.004320  -0.000003   0.000000
    20  H   -0.000026   0.339193  -0.000399   0.000000   0.000000   0.000000
    21  H    0.004762  -0.000399   0.523008   0.000014   0.000000   0.000000
    22  H    0.004320   0.000000   0.000014   0.556845  -0.006414   0.000005
    23  H   -0.000003   0.000000   0.000000  -0.006414   0.550016  -0.000327
    24  H    0.000000   0.000000   0.000000   0.000005  -0.000327   0.336761
 Mulliken charges:
               1
     1  C    0.277249
     2  O   -0.411339
     3  C   -0.335213
     4  C   -0.299563
     5  C    0.165153
     6  C   -0.168816
     7  C   -0.185212
     8  C    0.361304
     9  O   -0.506721
    10  C   -0.232759
    11  C   -0.187825
    12  C    0.201313
    13  O   -0.588321
    14  O   -0.433373
    15  H    0.193403
    16  H    0.192980
    17  H    0.202197
    18  H    0.185269
    19  H    0.186249
    20  H    0.430394
    21  H    0.184985
    22  H    0.165053
    23  H    0.170064
    24  H    0.433527
 Sum of Mulliken charges =   0.00000
 Mulliken charges with hydrogens summed into heavy atoms:
               1
     1  C    0.277249
     2  O   -0.411339
     3  C    0.253368
     4  C   -0.114294
     5  C    0.165153
     6  C    0.017433
     7  C   -0.000227
     8  C    0.361304
     9  O   -0.076327
    10  C   -0.067706
    11  C   -0.017761
    12  C    0.201313
    13  O   -0.154794
    14  O   -0.433373
 Electronic spatial extent (au):  <R**2>=           3967.5431
 Charge=              0.0000 electrons
 Dipole moment (field-independent basis, Debye):
    X=              1.5510    Y=              4.5107    Z=             -0.4085  Tot=              4.7874
 Quadrupole moment (field-independent basis, Debye-Ang):
   XX=            -85.2201   YY=            -68.9000   ZZ=            -82.5239
   XY=              1.2440   XZ=              5.1796   YZ=              1.7238
 Traceless Quadrupole moment (field-independent basis, Debye-Ang):
   XX=             -6.3388   YY=              9.9813   ZZ=             -3.6425
   XY=              1.2440   XZ=              5.1796   YZ=              1.7238
 Octapole moment (field-independent basis, Debye-Ang**2):
  XXX=            -38.2421  YYY=             20.9412  ZZZ=             -0.1838  XYY=             20.1979
  XXY=             87.8867  XXZ=            -22.9089  XZZ=             -0.3609  YZZ=              7.1965
  YYZ=              2.0911  XYZ=             -5.3884
 Hexadecapole moment (field-independent basis, Debye-Ang**3):
 XXXX=          -3411.0793 YYYY=           -849.0702 ZZZZ=           -120.6418 XXXY=           -155.4457
 XXXZ=            149.4100 YYYX=             55.2273 YYYZ=              8.8373 ZZZX=              1.2460
 ZZZY=             -1.9931 XXYY=           -790.3933 XXZZ=           -672.0046 YYZZ=           -189.0317
 XXYZ=             26.0320 YYXZ=              1.6807 ZZXY=              5.1630
 N-N= 8.276020068563D+02 E-N=-3.263353002371D+03  KE= 6.837453329543D+02
 No NMR shielding tensors so no spin-rotation constants.
 Leave Link  601 at Fri Jul 29 15:04:42 2016, MaxMem=  2013265920 cpu:         1.6
 (Enter /public/apps/gaussian//g09/l701.exe)
 Compute integral first derivatives.
 ... and contract with generalized density number  0.
 D1PCM: PCM CHGder 1st derivatives, ID1Alg=3 FixD1E=F DoIter=F DoCFld=F I1PDM=0.
 GePol: Maximum number of non-zero 1st derivatives   =     256
 Leave Link  701 at Fri Jul 29 15:04:44 2016, MaxMem=  2013265920 cpu:        13.4
 (Enter /public/apps/gaussian//g09/l702.exe)
 L702 exits ... SP integral derivatives will be done elsewhere.
 Leave Link  702 at Fri Jul 29 15:04:44 2016, MaxMem=  2013265920 cpu:         0.1
 (Enter /public/apps/gaussian//g09/l703.exe)
 Compute integral first derivatives, UseDBF=F ICtDFT=           0.
 Integral derivatives from FoFJK, PRISM(SPDF).
 Calling FoFJK, ICntrl=      2127 FMM=F ISym2X=0 I1Cent= 0 IOpClX= 0 NMat=1 NMatS=1 NMatT=0.
 FoFJK:  IHMeth= 1 ICntrl=    2127 DoSepK=F KAlg= 0 I1Cent=   0 FoldK=F
 IRaf=         0 NMat=   1 IRICut=       1 DoRegI=T DoRafI=F ISym2E= 0.
 FoFCou: FMM=F IPFlag=           0 FMFlag=      100000 FMFlg1=         800
         NFxFlg=           0 DoJE=F BraDBF=F KetDBF=F FulRan=T
         wScrn=  0.000000 ICntrl=    2127 IOpCl=  0 I1Cent=           0 NGrid=           0
         NMat0=    1 NMatS0=      1 NMatT0=    0 NMatD0=    1 NMtDS0=    0 NMtDT0=    0
 Symmetry not used in FoFCou.
 Leave Link  703 at Fri Jul 29 15:04:48 2016, MaxMem=  2013265920 cpu:        28.1
 (Enter /public/apps/gaussian//g09/l716.exe)
 Dipole        = 6.10201967D-01 1.77466456D+00-1.60703594D-01
 ***** Axes restored to original set *****
 -------------------------------------------------------------------
 Center     Atomic                   Forces (Hartrees/Bohr)
 Number     Number              X              Y              Z
 -------------------------------------------------------------------
      1        6          -0.006737527    0.008895764   -0.004362185
      2        8          -0.001720586   -0.000447018    0.000950727
      3        6           0.007767788    0.004454991   -0.003630798
      4        6           0.004811536    0.000202395   -0.004641015
      5        6          -0.007161449    0.001011289    0.007693858
      6        6           0.012950929   -0.010399559    0.000011276
      7        6          -0.008593398    0.005226641    0.004970148
      8        6           0.018672017   -0.008340791   -0.003709514
      9        8          -0.014585896    0.012320577   -0.005174727
     10        6           0.000858545   -0.002073206    0.003842031
     11        6          -0.008462891    0.004307497   -0.001859636
     12        6           0.001816547   -0.014741794    0.006987727
     13        8           0.008249103    0.007057574   -0.005276293
     14        8          -0.009179119    0.001358965    0.007365861
     15        1          -0.003208029    0.000979410   -0.000350917
     16        1          -0.003271316    0.001290182    0.000152927
     17        1           0.000010785   -0.004205050    0.002265703
     18        1           0.000562514    0.000207646   -0.000187622
     19        1          -0.003647006   -0.000144953   -0.001958872
     20        1           0.004903172   -0.000023512   -0.005569824
     21        1           0.002146538   -0.000557048   -0.000881313
     22        1          -0.000348886    0.002016781   -0.000560106
     23        1           0.002109504   -0.000839838   -0.000180712
     24        1           0.002057123   -0.007556944    0.004103277
 -------------------------------------------------------------------
 Cartesian Forces:  Max     0.018672017 RMS     0.005897220
 Leave Link  716 at Fri Jul 29 15:04:49 2016, MaxMem=  2013265920 cpu:         0.2
 (Enter /public/apps/gaussian//g09/l103.exe)

 GradGradGradGradGradGradGradGradGradGradGradGradGradGradGradGradGradGrad
 Berny optimization.
 FormGI is forming the generalized inverse of G from B-inverse, IUseBI=4.
 Internal  Forces:  Max     0.015118494 RMS     0.004065291
 Search for a local minimum.
 Step number   1 out of a maximum of  115
 All quantities printed in internal units (Hartrees-Bohrs-Radians)
 RMS Force = .40653D-02 SwitMx=.10000D-02 MixMth= 1
 Mixed Optimization -- RFO/linear search
 Second derivative matrix not updated -- first step.
 ITU=  0
     Eigenvalues ---    0.01136   0.01165   0.01388   0.01558   0.01758
     Eigenvalues ---    0.02036   0.02036   0.02060   0.02069   0.02076
     Eigenvalues ---    0.02094   0.02100   0.02109   0.02122   0.02162
     Eigenvalues ---    0.02183   0.02212   0.02437   0.02863   0.09988
     Eigenvalues ---    0.10545   0.15998   0.15999   0.16000   0.16000
     Eigenvalues ---    0.16000   0.16000   0.16000   0.16000   0.16000
     Eigenvalues ---    0.16000   0.22000   0.22000   0.22374   0.23479
     Eigenvalues ---    0.24606   0.24971   0.25000   0.25000   0.25000
     Eigenvalues ---    0.25000   0.25000   0.34189   0.34241   0.34270
     Eigenvalues ---    0.35024   0.35037   0.35273   0.35412   0.35501
     Eigenvalues ---    0.35639   0.35761   0.41712   0.41945   0.42013
     Eigenvalues ---    0.45172   0.45549   0.46375   0.47252   0.50559
     Eigenvalues ---    0.51143   0.51289   0.51816   0.56397   0.56880
     Eigenvalues ---    0.97214
 RFO step:  Lambda=-7.81344086D-03 EMin= 1.13622143D-02
 Linear search not attempted -- first point.
 Iteration  1 RMS(Cart)=  0.07399614 RMS(Int)=  0.00318895
 Iteration  2 RMS(Cart)=  0.00529281 RMS(Int)=  0.00006401
 Iteration  3 RMS(Cart)=  0.00001913 RMS(Int)=  0.00006352
 Iteration  4 RMS(Cart)=  0.00000000 RMS(Int)=  0.00006352
 ITry= 1 IFail=0 DXMaxC= 2.56D-01 DCOld= 1.00D+10 DXMaxT= 3.00D-01 DXLimC= 3.00D+00 Rises=F
 Variable       Old X    -DE/DX   Delta X   Delta X   Delta X     New X
                                 (Linear)    (Quad)   (Total)
    R1        2.59305   0.00005   0.00000   0.00010   0.00010   2.59315
    R2        2.63738  -0.00246   0.00000  -0.00512  -0.00512   2.63226
    R3        2.64363   0.01104   0.00000   0.02430   0.02430   2.66794
    R4        2.68907   0.00317   0.00000   0.00740   0.00740   2.69647
    R5        2.07012   0.00122   0.00000   0.00350   0.00350   2.07361
    R6        2.06925   0.00151   0.00000   0.00432   0.00432   2.07357
    R7        2.06877  -0.00045   0.00000  -0.00129  -0.00129   2.06748
    R8        2.65733   0.00363   0.00000   0.00749   0.00748   2.66481
    R9        2.05010   0.00035   0.00000   0.00098   0.00098   2.05108
   R10        2.78169  -0.00169   0.00000  -0.00465  -0.00465   2.77705
   R11        2.65321   0.00152   0.00000   0.00272   0.00272   2.65593
   R12        2.53499   0.00887   0.00000   0.01538   0.01538   2.55037
   R13        2.05615   0.00108   0.00000   0.00301   0.00301   2.05915
   R14        2.77757   0.00386   0.00000   0.01056   0.01056   2.78813
   R15        2.04650   0.00205   0.00000   0.00564   0.00564   2.05214
   R16        2.53911   0.01512   0.00000   0.02644   0.02644   2.56555
   R17        2.29776   0.01184   0.00000   0.01208   0.01208   2.30983
   R18        1.85287  -0.00403   0.00000  -0.00774  -0.00774   1.84513
   R19        2.63684   0.00168   0.00000   0.00346   0.00347   2.64030
   R20        2.05636  -0.00036   0.00000  -0.00101  -0.00101   2.05535
   R21        2.62126   0.00609   0.00000   0.01301   0.01302   2.63427
   R22        2.05234   0.00032   0.00000   0.00088   0.00088   2.05322
   R23        2.58729   0.00790   0.00000   0.01522   0.01522   2.60251
   R24        1.84776  -0.00347   0.00000  -0.00659  -0.00659   1.84116
    A1        2.20670  -0.00122   0.00000  -0.00524  -0.00524   2.20145
    A2        1.99886  -0.00271   0.00000  -0.01103  -0.01104   1.98782
    A3        2.07762   0.00393   0.00000   0.01625   0.01626   2.09389
    A4        2.03599   0.00712   0.00000   0.02761   0.02761   2.06360
    A5        1.93880   0.00034   0.00000   0.00065   0.00063   1.93943
    A6        1.93930   0.00013   0.00000  -0.00064  -0.00066   1.93864
    A7        1.88053  -0.00597   0.00000  -0.03288  -0.03288   1.84765
    A8        1.94229  -0.00216   0.00000  -0.01756  -0.01759   1.92470
    A9        1.87953   0.00386   0.00000   0.02573   0.02573   1.90526
   A10        1.88031   0.00390   0.00000   0.02589   0.02588   1.90619
   A11        2.10076  -0.00027   0.00000  -0.00233  -0.00233   2.09843
   A12        2.10400  -0.00039   0.00000  -0.00199  -0.00199   2.10201
   A13        2.07835   0.00066   0.00000   0.00430   0.00429   2.08265
   A14        2.13022  -0.00281   0.00000  -0.00930  -0.00951   2.12071
   A15        2.08181   0.00007   0.00000  -0.00156  -0.00175   2.08006
   A16        2.07020   0.00278   0.00000   0.01239   0.01218   2.08238
   A17        2.16311   0.00646   0.00000   0.02838   0.02836   2.19147
   A18        2.02102  -0.00029   0.00000   0.00339   0.00337   2.02440
   A19        2.09889  -0.00616   0.00000  -0.03158  -0.03160   2.06729
   A20        2.08885   0.00454   0.00000   0.01995   0.01994   2.10879
   A21        2.15207  -0.00348   0.00000  -0.01712  -0.01713   2.13494
[...]
 0050752,-0.00062374,-0.00012552,0.00007231,-0.00002325,0.00005007,0.00
 000959,0.00002090,-0.00002343,0.00001437,-0.00000595,0.00000307,0.0000
 0045,0.00000326,-0.00000157,-0.00002810,0.00033701,-0.00032935,0.00038
 328,-0.00019135,-0.00005158,0.00011334,-0.00083040,0.00011628,-0.00036
 270,0.00014450,-0.00004257,-0.00000552,-0.00000297,0.00000092,0.004718
 73,0.00113610,0.00808962,0.11856417,0.00579843,0.00209824,-0.00124016,
 0.00959663,-0.00836579,0.03662971,-0.01546425,-0.05322417,-0.02877866,
 -0.00069662,0.00065692,-0.00067344,-0.00025587,-0.00020948,0.00005551,
 0.00014116,-0.00024663,0.00016354,-0.00013547,0.00018549,-0.00011594,0
 .00024994,-0.00011956,0.00004419,-0.00003598,0.00008208,-0.00005058,-0
 .00041492,0.00021275,-0.00014771,0.00044228,-0.00016443,-0.00007370,-0
 .00062459,-0.00089739,0.00010435,-0.00019885,-0.00029162,0.00018513,-0
 .00013238,0.00000487,0.00001802,-0.01359947,0.00053970,-0.02247401,0.0
 1359305,0.05787549,-0.00527235,-0.00106348,0.00182177,-0.00145761,0.01
 365313,-0.02179687,-0.11190029,-0.02406394,-0.24575177,0.00004639,0.00
 006496,-0.00012188,0.00035839,-0.00013354,0.00004748,-0.00008554,0.000
 23841,-0.00014696,0.00010509,-0.00013476,0.00007891,-0.00017781,0.0000
 8148,-0.00003172,0.00002271,-0.00005951,0.00003947,0.00037722,-0.00030
 006,0.00007257,-0.00050951,0.00012448,0.00011064,0.00092836,0.00062690
 ,-0.00053104,0.00003738,0.00017347,-0.00005368,0.00008712,-0.00000124,
 -0.00001244,-0.00821369,-0.00226533,-0.01081018,0.12264782,0.01456027,
 0.26968444,0.00325834,-0.00021918,-0.00038495,-0.00599271,-0.00445280,
 0.00426434,-0.32593346,0.01467078,0.03915674,-0.00009973,0.00013276,-0
 .00003433,-0.00006307,-0.00003541,0.00004990,0.00009079,-0.00013714,0.
 00008375,-0.00009103,0.00012143,-0.00006834,0.00016251,-0.00008348,0.0
 0002828,-0.00002363,0.00005470,-0.00003394,-0.00014029,-0.00001007,0.0
 0002946,0.00009342,-0.00013847,0.00007961,-0.00060809,0.00010580,0.000
 08358,0.00010770,-0.00015555,0.00008326,-0.00008614,0.00000561,0.00001
 207,-0.00436536,0.00068765,-0.00019969,-0.01183958,0.00179718,0.002261
 59,0.34560892,0.00115686,-0.00343462,0.00245323,-0.03702701,-0.0065027
 9,0.01144718,0.02708381,-0.05069488,-0.00647749,0.00058917,-0.00053653
 ,0.00042884,-0.00033943,0.00031813,-0.00008719,0.00008068,-0.00019457,
 0.00013754,-0.00009992,0.00012784,-0.00007100,0.00016730,-0.00008061,0
 .00002538,-0.00002173,0.00005576,-0.00003485,-0.00008079,0.00007765,-0
 .00005142,0.00030683,-0.00041625,0.00022877,-0.00183433,0.00027798,0.0
 0035230,0.00026912,-0.00003613,-0.00005010,-0.00008298,0.00000253,0.00
 001347,0.02582547,0.00192949,-0.00233689,-0.00356327,0.00104548,-0.000
 41774,-0.01223726,0.05765935,-0.00126766,0.00277701,-0.00107322,0.0264
 4768,0.00551550,-0.00818428,0.03068618,-0.00424261,-0.05552233,-0.0003
 3855,0.00049860,-0.00007294,0.00025630,-0.00015038,0.00014956,-0.00006
 749,0.00017254,-0.00008709,0.00008520,-0.00010903,0.00006102,-0.000143
 87,0.00007022,-0.00002252,0.00001920,-0.00004780,0.00003034,0.00007523
 ,-0.00005505,0.00001282,-0.00022179,0.00029470,-0.00018919,0.00141427,
 -0.00000433,0.00005643,-0.00021119,0.00003219,-0.00001466,0.00007225,-
 0.00000296,-0.00001170,0.01536532,-0.00079086,-0.00100511,-0.02681464,
 0.00160958,0.00727647,-0.04546615,-0.00512021,0.05856923,0.00827176,0.
 02050106,-0.01496083,0.00175823,-0.00200079,0.00041319,-0.00086440,0.0
 0027826,-0.00024192,-0.06335508,-0.02924485,0.02622235,0.00165624,-0.0
 2351397,0.01655302,0.00135257,-0.00027935,-0.00065022,-0.00224690,-0.0
 0006252,0.00048799,-0.00013960,0.00031828,-0.00025033,0.00007824,-0.00
 011286,0.00006719,-0.00523002,0.00018907,0.00171548,-0.00070363,0.0002
 9069,-0.00017986,-0.00407761,0.00213844,0.00049637,-0.00005370,0.00135
 904,-0.00108860,0.00036999,-0.00005901,-0.00000046,-0.00155700,-0.0003
 3245,0.00010147,-0.00120447,0.00011677,0.00056540,0.00006754,0.0000442
 8,-0.00007194,0.06527548,-0.00328303,-0.01004348,0.01128603,-0.0016928
 4,-0.00082255,-0.00152917,-0.00076508,-0.00010717,-0.00013231,-0.02776
 001,-0.23461008,0.14692439,-0.00130272,-0.00165334,0.00270695,0.000746
 85,-0.00190526,-0.00103597,0.00086989,0.00026231,-0.00025829,0.0002382
 1,-0.00004492,-0.00021395,-0.00003567,0.00009631,-0.00005133,-0.000641
 33,0.00253023,0.00161949,0.00035880,-0.00000286,-0.00045553,0.00308178
 ,0.00205989,0.00263618,0.00010018,-0.00115668,0.00023520,-0.00002366,-
 0.00001143,0.00011414,-0.00102701,0.00018437,0.00061657,0.00012739,-0.
 00001393,-0.00041240,-0.00027230,0.00041836,-0.00040192,0.03072435,0.2
 4429853,0.00170566,0.00682151,0.00005433,0.00022566,-0.00146588,-0.002
 44361,0.00054837,-0.00028264,-0.00041598,0.02510012,0.14720635,-0.1407
 9163,0.00097754,0.00682952,-0.00313043,-0.00137198,-0.00084472,-0.0023
 4049,-0.00017382,-0.00008428,0.00022749,-0.00019052,-0.00022958,-0.000
 08885,0.00001245,-0.00003605,0.00003665,0.00228755,0.00145589,0.003216
 54,-0.00023666,-0.00043971,-0.00020337,-0.00015982,0.00281991,0.004683
 40,-0.00020350,-0.00000448,-0.00075575,-0.00002685,0.00012073,0.000064
 57,-0.00038638,-0.00024614,0.00006642,0.00155361,0.00032939,-0.0000904
 4,0.00014803,-0.00047051,0.00006786,-0.02962024,-0.16234660,0.14074895
 ,-0.00024652,-0.00083487,0.00066575,-0.00070958,0.00014070,-0.00006058
 ,0.00009101,0.00019213,-0.00013788,-0.00162344,0.00353270,-0.00158972,
 -0.01989722,-0.00793875,0.01019893,-0.26161947,-0.07628271,0.09411349,
 0.00418340,-0.00049809,0.00097051,-0.00189969,0.00041083,-0.00139740,0
 .00026407,-0.00070306,0.00052698,0.00040397,-0.00176210,0.00078359,0.0
 0006268,0.00018877,-0.00009204,0.00037559,-0.00018413,0.00008853,-0.00
 029948,0.00026869,-0.00013835,0.00023339,0.00146437,-0.00095426,0.0000
 0866,-0.00002403,0.00002006,0.00001122,-0.00002897,0.00001319,-0.00002
 010,-0.00001814,0.00001524,0.00013768,-0.00012649,0.00005030,0.2793230
 0,0.00038003,0.00071910,-0.00044400,0.00032082,-0.00033221,-0.00016974
 ,-0.00004219,-0.00006893,0.00007934,0.00261435,-0.00115462,0.00254161,
 0.01544361,0.00737519,-0.00465595,-0.07631932,-0.08267097,0.04074211,-
 0.02425017,-0.00504607,0.01336307,-0.00241089,-0.00302457,-0.00293800,
 0.00032330,0.00077713,-0.00029213,0.00153248,-0.00017804,-0.00156254,-
 0.00005904,0.00018071,0.00008201,0.00003993,-0.00003529,0.00012664,-0.
 00006398,-0.00000556,-0.00000568,0.00080078,0.00111496,-0.00042372,-0.
 00001303,0.00000993,-0.00000285,0.00000057,0.00000891,-0.00000483,0.00
 000648,0.00000578,-0.00000768,-0.00005829,0.00004701,-0.00006570,0.079
 75607,0.08267161,-0.00018253,-0.00021624,0.00037157,-0.00018602,-0.000
 13720,-0.00035969,0.00001758,0.00003826,0.00000811,-0.00094717,0.00236
 892,0.00166589,-0.00624441,-0.00028382,0.00621839,0.09412542,0.0407322
 6,-0.09116013,0.01768677,0.00893005,-0.00207457,0.00059021,-0.00346145
 ,-0.00550970,-0.00019256,-0.00010345,0.00055341,-0.00151941,-0.0009583
 0,-0.00104939,0.00008102,0.00003596,0.00024264,-0.00006751,0.00016709,
 0.00005170,0.00009382,-0.00006696,-0.00000131,-0.00049705,-0.00054639,
 0.00119183,-0.00000699,0.00000010,0.00000236,0.00001257,-0.00000058,0.
 00000110,-0.00000153,-0.00000363,-0.00000094,0.00000456,-0.00005331,-0
 .00002664,-0.10307542,-0.05358855,0.08455113,-0.00004150,-0.00014248,0
 .00011556,0.00008628,0.00003418,-0.00003971,-0.00000789,-0.00002590,0.
 00001910,-0.00015538,-0.00002274,0.00004610,0.00034764,-0.00030675,0.0
 0001630,-0.00006432,0.00051789,-0.00019843,0.00190338,-0.00083422,0.00
 125438,0.00588350,0.00271586,-0.00240044,-0.40169023,0.17239914,-0.049
 24909,-0.00002241,0.00016246,-0.00013451,0.00015950,-0.00000282,-0.000
 00943,-0.00017771,0.00013214,-0.00006120,0.00021225,-0.00012945,0.0000
 4979,-0.00203671,-0.00398167,0.00224255,0.00000034,0.00000512,-0.00000
 372,0.00000043,0.00000531,-0.00000368,0.00000338,0.00000357,-0.0000030
 4,-0.00000650,0.00000446,-0.00000673,-0.00000350,0.00006125,-0.0000136
 9,0.39534030,0.00003285,0.00013380,-0.00007167,-0.00005272,-0.00002569
 ,0.00003005,0.00000612,0.00001681,-0.00001234,0.00010226,0.00001932,-0
 .00002945,-0.00049482,-0.00027346,-0.00022294,0.00157530,-0.00051014,0
 .00063850,-0.00249639,-0.00122562,0.00519694,0.04179853,-0.02464572,0.
 01156002,0.13182354,-0.09812253,0.03393716,0.00010032,-0.00020629,0.00
 003474,-0.00013353,0.00001338,0.00008447,0.00013080,-0.00010253,0.0000
 4156,-0.00016245,0.00009617,-0.00004264,-0.00181991,0.00620425,-0.0075
 1246,-0.00000035,-0.00000376,0.00000255,0.00000023,-0.00000363,0.00000
 199,-0.00000240,-0.00000234,0.00000208,0.00001290,-0.00001435,-0.00001
 073,0.00001592,-0.00000906,0.00011277,-0.17030414,0.11848552,-0.000007
 76,-0.00003833,0.00006924,0.00002134,0.00001362,-0.00001068,-0.0000027
 0,-0.00000666,0.00000531,-0.00004127,-0.00000580,0.00001671,0.00014549
 ,-0.00025906,-0.00056990,-0.00093739,0.00083366,0.00040930,0.00242559,
 0.00488670,0.00162913,-0.02986122,0.01883283,-0.00470036,-0.02074995,0
 .02639027,-0.02969432,-0.00008995,0.00002188,-0.00012945,0.00008157,0.
 00006016,0.00004109,-0.00005977,0.00004091,-0.00002623,0.00007239,-0.0
 0004844,0.00001269,0.00072965,-0.00710874,-0.00011742,-0.00000046,0.00
 000104,-0.00000116,0.00000028,0.00000165,-0.00000141,0.00000106,0.0000
 0102,-0.00000083,-0.00001282,-0.00000923,-0.00001742,0.00001834,0.0001
 0458,0.00007928,0.04829766,-0.04337173,0.03314637,0.00016042,-0.000052
 87,-0.00005956,0.00006908,0.00001315,-0.00000719,0.00001236,-0.0000123
 8,0.00000968,-0.00024646,0.00065329,-0.00041307,-0.00114610,-0.0003775
 3,-0.00052436,0.00720095,0.00085766,-0.00123984,-0.24621357,-0.0890346
 9,0.10240657,-0.01461539,-0.01437096,0.01264928,0.00102296,0.00017472,
 -0.00040988,0.00013178,-0.00011262,0.00005143,-0.00002651,-0.00006741,
 0.00005410,-0.00011931,0.00004239,-0.00007483,0.00005514,0.00000179,0.
 00003635,-0.00621224,0.00345401,-0.00059650,-0.00000138,0.00000479,-0.
 00000447,-0.00000403,0.00000604,-0.00000153,0.00000411,0.00000016,-0.0
 0000097,0.00011654,0.00076203,-0.00034359,0.00062788,0.00197659,0.0003
 6791,0.00030399,-0.00016178,-0.00001278,0.25884809,0.00019594,0.000065
 70,-0.00033677,-0.00005778,-0.00000696,0.00007345,0.00001715,0.0000166
 3,-0.00000081,0.00002465,-0.00042706,0.00029224,-0.00067689,-0.0006863
 8,-0.00316413,-0.02273322,-0.00559143,0.01084503,-0.09221438,-0.094277
 67,0.06021516,0.01107492,0.00624853,-0.00717472,0.00076935,-0.00019539
 ,-0.00036554,-0.00003736,0.00004877,-0.00003932,0.00008933,0.00003850,
 -0.00003688,-0.00009326,-0.00013668,-0.00014140,0.00002806,0.00011785,
 0.00009292,0.00485343,-0.00019533,0.00177372,0.00000602,-0.00000029,0.
 00000620,-0.00000767,-0.00000701,0.00000078,-0.00000643,0.00000264,-0.
 00000142,0.00091682,0.00045548,0.00028477,0.00175738,0.00001956,0.0067
 2045,-0.00027324,0.00017641,-0.00033250,0.09628271,0.09425849,-0.00023
 585,-0.00029355,-0.00011073,0.00004386,0.00006046,0.00003122,-0.000010
 47,0.00000321,0.00001711,0.00002628,0.00017977,-0.00013037,-0.00031311
 ,-0.00321429,-0.00304228,0.01535792,0.00644039,-0.00360705,0.10466291,
 0.05960894,-0.09473049,-0.00526634,-0.00240734,0.00167509,-0.00082404,
 -0.00026186,-0.00017819,0.00000037,-0.00002669,0.00000239,-0.00005785,
 -0.00000734,0.00002589,0.00002067,-0.00016274,-0.00025106,0.00001946,0
 .00009602,0.00018581,-0.00157797,0.00203093,0.00247080,0.00000934,0.00
 000127,-0.00000582,-0.00000689,0.00000396,0.00000419,0.00000367,-0.000
 00257,0.00000018,-0.00046342,0.00031530,0.00097329,0.00051958,0.006676
 70,0.00524208,0.00006602,-0.00035198,-0.00013219,-0.11192883,-0.068718
 90,0.09146455,0.00047110,0.00035382,-0.00051325,-0.00041386,-0.0002663
 0,0.00018721,0.00001852,0.00012471,-0.00012501,0.00134898,-0.00009903,
 0.00082070,-0.00119835,0.00040136,0.00031522,0.00006169,0.00146579,-0.
 00184835,0.00061138,-0.00036469,0.00020931,-0.00041316,0.00018144,-0.0
 0000106,0.00006395,-0.00015212,0.00008915,-0.29595887,-0.05799974,0.08
 966998,-0.01716012,-0.00703546,0.00857865,-0.00000624,0.00338546,-0.00
 102518,-0.00171394,-0.00022879,0.00052089,0.00021301,-0.00001154,-0.00
 003554,-0.00000696,-0.00002325,0.00002375,0.00001586,-0.00002044,0.000
 01742,-0.00001836,-0.00002315,0.00001624,-0.00010486,0.00018747,0.0000
 7708,0.00054541,-0.00000357,-0.00005443,-0.00001032,0.00000004,-0.0000
 0404,0.00001704,0.00006404,-0.00003518,0.31260535,0.00047961,-0.000846
 71,-0.00015624,-0.00010646,0.00004088,-0.00029103,-0.00000214,-0.00008
 014,-0.00008598,0.00105201,-0.00198558,0.00496800,-0.02298008,-0.00224
 372,0.00726548,-0.00171906,-0.00065267,-0.00224186,0.00014561,0.000258
 72,0.00004233,0.00004557,0.00004472,0.00014468,-0.00000847,0.00002103,
 -0.00003475,-0.05748400,-0.06622596,0.03332511,0.01786064,0.00715320,-
 0.00674006,0.00263083,0.00030622,0.00437582,0.00110759,0.00048030,-0.0
 0038222,-0.00002259,0.00002014,-0.00002475,-0.00003690,0.00002286,0.00
 005063,0.00003987,0.00000319,-0.00002062,-0.00001053,0.00002021,-0.000
 02313,-0.00111488,0.00017792,0.00079485,0.00068245,-0.00042663,0.00035
 465,-0.00000307,-0.00001219,-0.00001324,-0.00002433,0.00007133,0.00000
 442,0.06034272,0.06458416,-0.00060822,-0.00013214,-0.00073733,0.000079
 64,-0.00026025,-0.00023092,-0.00003874,-0.00010788,-0.00012871,0.00001
 842,0.00518712,0.00172280,0.01673064,0.00288820,-0.00316179,0.00038340
 ,-0.00283884,-0.00238642,-0.00014820,0.00013699,0.00029023,0.00009242,
 0.00012061,0.00016120,-0.00001168,-0.00000839,-0.00002275,0.08930292,0
 .03344085,-0.07418125,-0.00888408,-0.00209736,0.00544498,-0.00051495,0
 .00422785,0.00436311,-0.00041550,-0.00013220,0.00039700,-0.00002695,-0
 .00002681,0.00000277,-0.00005819,-0.00000223,0.00002039,0.00006980,0.0
 0003963,0.00002213,0.00000882,-0.00002123,-0.00000235,0.00098935,0.000
 55434,0.00044592,-0.00052814,0.00048048,0.00001391,-0.00000190,-0.0000
 1376,-0.00002187,0.00002729,-0.00001189,0.00007446,-0.09612530,-0.0391
 1917,0.07031715,-0.00433159,0.00124910,0.00108491,-0.00036576,-0.00168
 685,0.00125824,-0.00031108,0.00026285,-0.00017189,-0.00110646,0.000134
 42,0.00000756,-0.00345105,0.00249571,0.00011500,0.00062447,0.00095437,
 -0.00063137,-0.00047157,0.00014736,-0.00005946,0.00022014,-0.00004331,
 -0.00004525,-0.00006971,0.00009306,-0.00004630,0.00801667,0.02017947,-
 0.01543807,-0.06224602,-0.02635342,0.02387903,-0.00040977,-0.02369920,
 0.01756658,0.00341788,-0.00044874,-0.00101503,-0.00010072,0.00001371,0
 .00001279,0.00000217,-0.00005697,0.00001968,0.00001873,-0.00002324,0.0
 0003739,-0.00004240,-0.00013681,0.00009298,0.00015890,-0.00005829,-0.0
 0009502,-0.00001531,-0.00003370,0.00002375,0.00000203,0.00000930,-0.00
 000377,0.00001946,0.00001016,-0.00000167,0.00114628,-0.00108439,-0.000
 18823,0.05901026,0.00000494,0.00264098,0.00249317,-0.00030313,-0.00025
 026,0.00033957,-0.00004416,0.00013725,-0.00031763,-0.00016286,0.000138
 72,-0.00045317,0.00376406,0.00203816,0.00246823,-0.00064835,0.00004814
 ,0.00066751,0.00049925,-0.00045076,0.00006015,-0.00053955,0.00014578,-
 0.00013013,0.00009972,-0.00016824,0.00012213,-0.00421466,-0.00979654,0
 .00855479,-0.02751521,-0.23384181,0.14602868,0.00169430,-0.00251094,0.
 00455191,-0.00045852,-0.00053556,-0.00214778,0.00025784,-0.00000964,-0
 .00002773,-0.00001243,-0.00005615,0.00004316,0.00003729,0.00001352,0.0
 0000513,-0.00001933,-0.00004967,0.00000636,-0.00009800,-0.00024121,-0.
 00021082,0.00002114,0.00000371,-0.00001803,-0.00000858,0.00000666,0.00
 000849,-0.00001395,0.00001603,0.00002528,-0.00049641,-0.00051152,-0.00
 230920,0.02817106,0.24338506,0.00195634,0.00225720,0.00424395,0.000316
 17,0.00060155,-0.00031774,0.00002672,-0.00037672,-0.00008483,0.0002220
 1,-0.00051328,-0.00022805,-0.00078091,0.00270592,0.00478905,0.00049457
 ,0.00036708,0.00047725,-0.00030691,0.00012697,-0.00026495,0.00030547,-
 0.00022372,-0.00008289,-0.00005106,0.00012379,-0.00004525,0.00171227,0
 .00398515,-0.00186087,0.02468521,0.14582715,-0.14045886,-0.00030810,0.
 00929292,-0.00205972,-0.00099769,-0.00215268,-0.00202120,-0.00015952,0
 .00001764,0.00003667,-0.00003917,-0.00000476,0.00003829,0.00002666,0.0
 0007383,-0.00004877,0.00001390,0.00003041,-0.00006768,-0.00006625,-0.0
 0021713,-0.00040055,-0.00001494,-0.00000759,-0.00000801,0.00000876,0.0
 0000509,0.00001126,0.00001528,0.00002103,0.00003099,-0.00059842,-0.002
 19767,-0.00227128,-0.02630860,-0.15946641,0.14094122,0.00082689,-0.002
 09986,0.00145061,0.00079730,-0.00025523,-0.00008467,0.00044706,0.00036
 701,-0.00055705,-0.00218109,-0.00037148,0.00055288,0.00174733,-0.00059
 819,0.00007261,-0.00101783,0.00116080,-0.00065276,0.00072659,-0.000985
 69,0.00056409,-0.00122428,0.00060943,-0.00019103,0.00015156,-0.0003906
 1,0.00024472,-0.00095814,-0.00040226,0.00080678,-0.00003712,0.00419790
 ,-0.00259083,-0.04235648,-0.00789821,0.01273057,-0.31437710,-0.1175887
 2,0.13897404,0.00061865,-0.00000810,-0.00011220,0.00000747,-0.00021916
 ,0.00010869,0.00004171,-0.00011574,0.00011653,-0.00007276,-0.00006245,
 0.00006120,0.00030059,-0.00021297,0.00012874,0.00006636,-0.00000209,-0
 .00001491,-0.00002656,0.00002037,-0.00000948,-0.00000480,0.00001026,-0
 .00000845,-0.00011353,0.00021001,-0.00015261,0.00028445,-0.00001448,-0
 .00015180,0.35635374,0.00610256,-0.00128430,0.00029799,0.00080195,0.00
 137201,-0.00162442,-0.00297040,-0.00169368,0.00073678,-0.00081934,0.00
 017493,-0.00039054,0.00036633,-0.00037730,0.00011828,-0.00039456,0.000
 12839,-0.00012042,0.00020476,-0.00023510,0.00015312,-0.00028607,0.0001
 5438,-0.00002066,0.00002904,-0.00008996,0.00005267,0.00019009,0.001666
 23,0.00008137,0.00423975,-0.00269396,0.00248375,0.02552495,0.00892209,
 -0.01328273,-0.15821550,-0.10495082,0.09793602,0.00013533,0.00000160,-
 0.00003621,0.00004879,0.00061551,-0.00033801,0.00012294,0.00081699,-0.
 00065356,0.00019794,0.00000717,-0.00002140,-0.00001300,0.00009686,0.00
 007493,-0.00002981,0.00001835,-0.00002259,-0.00000633,0.00000498,-0.00
 000308,-0.00000085,-0.00001170,0.00000060,0.00021763,-0.00021975,0.000
 00527,-0.00009565,-0.00015171,-0.00027579,0.12464946,0.09772881,-0.004
 27315,0.00179867,0.00023984,-0.00087775,-0.00150387,0.00037888,0.00177
 264,0.00022503,-0.00168404,0.00087171,-0.00048551,-0.00043129,-0.00061
 830,0.00030017,-0.00020833,0.00044473,-0.00041826,0.00006234,-0.000276
 41,0.00038078,-0.00017888,0.00044557,-0.00019101,0.00010044,-0.0000509
 2,0.00013322,-0.00009134,0.00039166,0.00019888,0.00162671,-0.00258605,
 0.00249278,0.00072820,-0.01064243,-0.00710376,0.00361706,0.16739493,0.
 09044747,-0.10085821,-0.00021663,-0.00000942,0.00003297,-0.00012998,-0
 .00065887,0.00043525,0.00000471,-0.00026397,0.00023800,-0.00011912,0.0
 0002668,0.00003095,-0.00000947,0.00010855,0.00011974,0.00000421,-0.000
 02758,-0.00000300,0.00000934,-0.00000821,0.00000286,-0.00000050,-0.000
 00149,-0.00000988,-0.00015985,0.00000473,-0.00013139,-0.00009325,-0.00
 029365,-0.00034804,-0.15128569,-0.08515136,0.09633117\\-0.00003099,-0.
 00002405,-0.00002900,0.00001613,0.00003269,0.00002938,-0.00002058,-0.0
 0002160,-0.00001595,0.00001116,0.00000658,0.00000596,0.00002760,-0.000
 01061,0.00001337,-0.00002277,0.00003025,0.00001341,0.00001805,-0.00002
 157,-0.00000782,-0.00004405,0.00000276,0.00004029,-0.00000344,0.000033
 16,-0.00003145,-0.00001372,0.00001409,-0.00000420,0.00000395,-0.000000
 49,0.00000633,-0.00000667,0.00000950,0.00001211,0.00002474,-0.00000827
 ,-0.00000250,0.00002933,-0.00000290,-0.00001562,0.00001053,-0.00000407
 ,-0.00000200,-0.00000161,-0.00001157,0.00000098,0.00000731,-0.00000914
 ,-0.00000613,-0.00000281,-0.00000500,-0.00000584,0.00000247,0.00000068
 ,-0.00000766,0.00002274,-0.00000605,-0.00000244,0.00000201,-0.00000416
 ,-0.00000895,-0.00000140,0.00000440,0.00000283,-0.00000880,0.00000678,
 0.00000671,-0.00001920,-0.00001141,0.00000820\\\@


 MORNING PEOPLE ARE USUALLY ADMIRED AS EARLY BIRDS.
 RECALL BEN FRANKLIN'S APHORISM THAT THE EARLY BIRD GETS THE WORM.
 I IDENTIFY WITH THE WORM. --  CRAIG JAGGER, MINNEAPOLIS, KS.
 Job cpu time:       0 days  0 hours 20 minutes 15.3 seconds.
 File lengths (MBytes):  RWF=    205 Int=      0 D2E=      0 Chk=     11 Scr=      1
 Normal termination of Gaussian 09 at Fri Jul 29 15:11:37 2016.
